
Create H   file=/cm/shared/apps/adf2016.102/atomicdata/TZ2P/H
XC
 GGA BLYP
 DISPERSION Grimme3 BJDAMP
End
End Input

 *******************************************************************************
 *                                                                             *
 *  -------------------------------------                                      *
 *   Amsterdam Density Functional  (ADF)         2016                          *
 *  -------------------------------------                                      *
 *                                               r52212 2016-04-25             *
 *                                                                             *
 *                                                                             *
 *                              =================                              *
 *                              |               |                              *
 *                              |     A D F     |                              *
 *                              |               |                              *
 *                              =================                              *
 *                                                                             *
 *                                                                             *
 *   Online information and documentation:  http://www.scm.com                 *
 *   E-mail:  support@scm.com   info@scm.com                                   *
 *                                                                             *
 *   Scientific publications using ADF results must be properly referenced     *
 *   See the User Manuals (or the web site) for recommended citations          *
 *   The terms and conditions of the End User License Agreement apply to       *
 *   the use of ADF, http://www.scm.com/Sales/LicAgreement.html                *
 *                                                                             *
 **********************  x86_64_linux_intel / intelmpi  ************************
 
 Licensed to: VU/FEW (+ SARA) / ALGEMEEN / Amsterdam / THE NETHERLANDS
 SCM User ID: u7668
  
 ADF 2016  RunTime: Jan26-2017 17:06:23  Nodes: 1  Procs: 1

 Temporary files are created in /tmp/kid_0.WCRyAn

 Hydrogen (TZ2P)



 ===========================
 A T T A C H E D   F I L E S
 ===========================
  
 CREATE - Data File:    /cm/shared/apps/adf2016.102/atomicdata/TZ2P/H
                        Hydrogen (TZ2P)



 ===============================
 M O D E L   P A R A M E T E R S
 ===============================
  
 DENSITY FUNCTIONAL POTENTIAL (scf)
    LDA:                               Exchange only                           == Not Default ==
    Gradient Corrections:              Becke88 LYP                             == Not Default ==

 SPIN  (restricted / unrestr.)
    Molecule:                          Restricted                               

 OTHER ASPECTS
    Relativistic Corrections:          ---                                      

    Nuclear Charge Density Model:      Point Charge Nuclei                                                                                                                                                                                     
    Core Treatment:                    Frozen Orbital(s)                        

    Hyperfine or Zeeman Interaction:   ---                                      

 Settings for Grimme 3 dispersion correction

      damping                        BJ
      s6                          1.000
      a1                          0.430
      s8                          2.700
      a2                          4.236

 Other (technical) parameters

      alpha                      14.000
      version                         4
 



 =====================================
 S Y M M E T R Y ,   E L E C T R O N S
 =====================================
  
 Symmetry: ATOM

 Irreducible Representations, including subspecies
 -------------------------------------------------
 S
 P:x  P:y  P:z
 D:z2  D:x2-y2  D:xy  D:xz  D:yz
 F:z3  F:z  F:xyz  F:z2x  F:z2y  F:x  F:y


 Configuration of Valence Electrons
 ==================================

          Occupation Numbers
          -------------------------------------------------
 S        1
 P        0
 D        0
 F        0
          -------------------------------------------------

 Total:   1

 Net Charge: 0 (Nuclei minus Electrons)

 Preset values for MO occupations will be applied through SCF cycle no. 1000000
 Thereafter, the program will assign electrons to MOs that are spatially
 similar to the occupied MOs in a "reference" cycle ("KeepOrbitals").
 The reference cycle is always the PREVIOUS cycle: it will evolve with
 the SCF procedure.



 ================================
 (Slater-type)  F U N C T I O N S  ***  (Basis and Fit)  ***
 ================================
  

 Atom Type    1  (H)
 ==============

 Valence Basis Sets:   5
 -----------------------
   1 S    0.690000
   1 S    0.920000
   1 S    1.580000
   2 P    1.250000
   3 D    2.500000


 BAS: List of all Elementary Cartesian Basis Functions
 =====================================================

 The numbering in the list below (to the right of the function characteristics) is referred
 to in print-outs of MO eigenvectors and Mulliken populations in the BAS representation
 (as contrasted to the SFO representation).

 Notes:
 1. The functions are characterized by a polynomial prefactor (powers of x,y,z and r) and
    an exponential decay factor alpha.
 2. Since the basis sets are specific for an atom TYPE, the individual functions occur on
    all atoms of that type.
 3. The word 'Core' in the left margin signals that it is a Core Function (CF) : not a
    degree of freedom in the valence set, but only used to ensure orthogonalization of
    the other valence basis functions on the frozen Core Orbitals.


 (power of) X  Y  Z  R     Alpha  on Atom
            ==========     =====     ==========

 H                                    1
                                  ---------------------------------------------------------------------------
            0  0  0  0     0.690      1
            0  0  0  0     0.920      2
            0  0  0  0     1.580      3
            1  0  0  0     1.250      4
            0  1  0  0     1.250      5
            0  0  1  0     1.250      6
            2  0  0  0     2.500      7
            1  1  0  0     2.500      8
            1  0  1  0     2.500      9
            0  2  0  0     2.500     10
            0  1  1  0     2.500     11
            0  0  2  0     2.500     12

 Total number of charge fitting functions (nprimf)        50
 Total number of Cartesian basis functions (naos)         12
 Total number of Cartesian core functions  (ncos)          0



 BAS: List of all Elementary Cartesian Basis Functions
 =====================================================

 The numbering in the list below (to the right of the function characteristics) is referred
 to in print-outs of MO eigenvectors and Mulliken populations in the BAS representation
 (as contrasted to the SFO representation).

 Notes:
 1. The functions are characterized by a polynomial prefactor (powers of x,y,z and r) and
    an exponential decay factor alpha.
 2. Since the basis sets are specific for an atom TYPE, the individual functions occur on
    all atoms of that type.
 3. The word 'Core' in the left margin signals that it is a Core Function (CF) : not a
    degree of freedom in the valence set, but only used to ensure orthogonalization of
    the other valence basis functions on the frozen Core Orbitals.


 (power of) X  Y  Z  R     Alpha  on Atom
            ==========     =====     ==========

 H                                    1
                                  ---------------------------------------------------------------------------
            0  0  0  0     0.690      1
            0  0  0  0     0.920      2
            0  0  0  0     1.580      3
            1  0  0  0     1.250      4
            0  1  0  0     1.250      5
            0  0  1  0     1.250      6
            2  0  0  0     2.500      7
            1  1  0  0     2.500      8
            1  0  1  0     2.500      9
            0  2  0  0     2.500     10
            0  1  1  0     2.500     11
            0  0  2  0     2.500     12
1
 ***************************************************************************************************



                                              ***********************
                                              *  T E C H N I C A L  *
                                              ***********************
  



 =============================================================
 P A R A L L E L I Z A T I O N  and  V E C T O R I Z A T I O N
 =============================================================
  
 Nr of parallel processes:                                1
 Maximum vector length in NumInt loops:                 128

 IO buffersize (Mb):                                     64.000000



 =====================
 S C F   U P D A T E S
 =====================
  
 Max. nr. of cycles:                               300
 Convergence criterion:                              0.0000000100
   secondary criterion:                              0.0000000100

 Mix parameter (when DIIS does not apply):           0.2000000000
 Special mix parameter for the first cycle:          1.0000000000
 Mixed ADIIS+DIIS will be used
    Max number of expansion vectors:                10
    Pure ADIIS when Max([F,P]) is above              0.1000000000
    Pure DIIS when Max([F,P]) is below               0.0010000000
 Automatic ElectronSmearing (in case of problematic SCF convergence) disabled



 =================
 P R E C I S I O N  ***  (General: NumInt, NeglectFunctionTails, ...)  ***
 =================
  

 NumInt:           Target precision:                12.0000000000
 -------           Initial precision:               10.0000000000
                   Min. precision (optimization):   10.0000000000

 Neglect Functions:          Basis functions:        0.1000000000E-13
 ------------------          Fit functions:          0.1000000000E-13



 ===========================
 L I N E A R   S C A L I N G
 ===========================
  

 Cut-off radii density fit:                        0.1000000000E-97
 Overlap cut-off criterion AO matrix elements:     0.1000000000E-97
 Cut-offs for Coulomb potential and fitted density:0.1000000000E-97
 Cut-off criterion for Coulomb multipole terms:    0.1000000000E-97
 Progressive Convergence parameter:                 0.000000000    
1
 ***************************************************************************************************



                                            ***************************
                                            *  C O M P U T A T I O N  *
                                            ***************************
  

 Number of elements of the density matrix on this node (used, total):        78        78



 ===========================================
 Numerical Integration : Fuzzy Cells (Becke)
 ===========================================
  
 Becke grid quality: VERYGOOD       
  
 Lebedev angular grid order:             min:  13 max:  41
 Nr. of radial points:                   min:  64 max:  64

 Total nr. of points:         64
 Nr. of blocks:                1
 Block length:                64
 Nr. of dummy points:          0


 Test of Precision of the Numerical Integration Grid
 ===================================================

 Integral of the Total Core Density:                   0.00000000000000



 ========================
 Density Fitting (zlmFit)
 ========================
  
 ZlmFit Fit Quality: VERYGOOD       
  
 Max L-expansion:                        min:   0 max:   0
 Nr. of radial interpolation points:     min: 130 max: 130



 =====
 S C F  ***  ScaSCF  ***
 =====
  

 CYCLE    1
 SCF Error: norm([F,P])=      0.000000000000, max([F,P])=      0.000000000000
 orbitals (Q,E):
 ---------------
 S :1...3            ( 1.00    -0.5000)  ( 0.00    -0.0900)  ( 0.00     1.2939)
 P :1...1            ( 0.00     0.1562)
 D :1...1            ( 0.00     2.2917)

 CYCLE    2
 SCF Error: norm([F,P])=      0.031002856008, max([F,P])=      0.026444239384
 orbitals (Q,E):
 ---------------
 S :1...2            ( 1.00    -0.2236)  ( 0.00     0.0977)
 P :1...1            ( 0.00     0.4190)
 D :1...1            ( 0.00     2.5863)

 CYCLE    3
  SDIIS (wt  0.000):  0.2055  0.7945
 A-DIIS (wt  1.000):  0.0000  1.0000
  DIIS coefficients:  0.0000  1.0000
 SCF Error: norm([F,P])=      0.009580013340, max([F,P])=      0.009328518993
 orbitals (Q,E):
 ---------------
 S :1...2            ( 1.00    -0.2440)  ( 0.00     0.0860)
 P :1...1            ( 0.00     0.4030)
 D :1...1            ( 0.00     2.5655)

 CYCLE    4
  SDIIS (wt  0.987):  0.1949  0.8051
 A-DIIS (wt  0.013):  0.0000  1.0000
  DIIS coefficients:  0.1923  0.8077
 SCF Error: norm([F,P])=      0.002320932075, max([F,P])=      0.002286403159
 orbitals (Q,E):
 ---------------
 S :1...2            ( 1.00    -0.2400)  ( 0.00     0.0880)
 P :1...1            ( 0.00     0.4062)
 D :1...1            ( 0.00     2.5697)

 CYCLE    5
  SDIIS (wt  1.000):  0.0132  0.9868
  DIIS coefficients:  0.0132  0.9868
 SCF Error: norm([F,P])=      0.000031553206, max([F,P])=      0.000029840661
 orbitals (Q,E):
 ---------------
 S :1...2            ( 1.00    -0.2400)  ( 0.00     0.0880)
 P :1...1            ( 0.00     0.4062)
 D :1...1            ( 0.00     2.5697)

 CYCLE    6
  SDIIS (wt  1.000): -0.0314  1.0314
  DIIS coefficients: -0.0314  1.0314
 SCF Error: norm([F,P])=      0.000000959925, max([F,P])=      0.000000913629
 orbitals (Q,E):
 ---------------
 S :1...2            ( 1.00    -0.2400)  ( 0.00     0.0880)
 P :1...1            ( 0.00     0.4062)
 D :1...1            ( 0.00     2.5697)

 CYCLE    7
  SDIIS (wt  1.000):  0.0045  0.9955
  DIIS coefficients:  0.0045  0.9955
 SCF Error: norm([F,P])=      0.000000004387, max([F,P])=      0.000000004212
 orbitals (Q,E):
 ---------------
 S :1...2            ( 1.00    -0.2400)  ( 0.00     0.0880)
 P :1...1            ( 0.00     0.4062)
 D :1...1            ( 0.00     2.5697)

 SCF CONVERGED

 CYCLE    8
1
 ***************************************************************************************************



                                                *******************
                                                *  R E S U L T S  *
                                                *******************
  
 *** Setting up for NEW gradients in Focky
 *** Using FIT density in Focky

 Orbital Energies, per Irrep and Spin:
 ======================================
                        Occup              E (au)              E (eV)       Diff (eV) with prev. cycle
                        -----      --------------------        ------       --------------------------
 S
               1        1.000     -0.24003723730291E+00        -6.532              -1.36E-09
               2        0.000      0.87974178151410E-01         2.394
               3        0.000      0.15021841144445E+01        40.877
 P
               1        0.000      0.40615190499535E+00        11.052
 D
               1        0.000      0.25696970808913E+01        69.925


 Partially Occupied:
               1 S                -0.24003723730291E+00
  
 LUMO :        2 S                 0.87974178151410E-01
  


 Orbital Energies, all Irreps
 ========================================

 Irrep        no.  (spin)   Occup              E (au)                E (eV)
 ---------------------------------------------------------------------------
 S             1             1.00       -0.24003723730291E+00        -6.5317
 S             2             0.00        0.87974178151410E-01         2.3939
 P             1             0.00        0.40615190499535E+00        11.0520
 S             3             0.00        0.15021841144445E+01        40.8765
 D             1             0.00        0.25696970808913E+01        69.9250


 All Electron Calculation, thus no Orbital Energies of the Core Orbitals are calculated



 =======================================
 M U L L I K E N   P O P U L A T I O N S
 =======================================
  
 The survey below gives for each atom:
 a) the total charge (Z minus electrons)
 b) the net spin polarization (nr of electrons spin-A minus spin-B)
 c) for each spin the atomic electron valence density (integrated) per L-value.

 Atom              Charge    Spin density          S         P         D         F
 ----              ------    ------------       ------    ------    ------    ------
 1 H               0.0000                       1.0000    0.0000    0.0000    0.0000

 Populations of individual BAS functions
 ----------------------------------------
 1 H            0.2458  0.6250  0.1292  0.0000  0.0000  0.0000  0.0000  0.0000  0.0000  0.0000
                0.0000  0.0000

 Gross Charges per Atom (Z minus electrons)
 ==========================================
             0.0000
 Net Total:  0.00000000



 =======================================================================
 Electrostatic potential at the Nuclei due to electrons and other nuclei
 =======================================================================
  
         Atom                  Potential
         ----                  ---------
     1)   H                   0.94873442
 
 
 ========================
 No memory problems found
 ========================
 
 Maximum number of active allocate calls:         363
 
 *******************************************************************************

                             A D F   E X I T
 NORMAL TERMINATION



 =================
 Timing Statistics
 =================
  
 Total Used :                     CPU=        0.39      System=        0.04     Elapsed=        0.44

 Calls  Section                     ( Mean, Percentage )
 ---------------------------------------------------------------------------------------------------
     3  ><      ................      0.00    0.00             0.00    2.08             0.00    0.19
     1  INIT    ................      0.01    2.85             0.03   60.43             0.05   10.14
     1  GEOMET  ................      0.01    3.06             0.01   13.39             0.02    4.07
     1  INPUTA  ................      0.00    0.24             0.00    2.33             0.00    0.47
     1  MAINSY  ................      0.00    1.13             0.00    3.83             0.01    1.39
     1  SYMFIT  ................      0.00    0.06             0.00    0.26             0.00    0.08
     1  CORORT  ................      0.00    0.04             0.00    0.18             0.00    0.06
     1  SYMORB  ................      0.00    0.22             0.00    0.02             0.00    0.18
     1  CLSMAT  ................      0.00    0.82             0.00    0.05             0.00    0.74
     1  ORTHON  ................      0.00    0.37             0.00    0.13             0.00    0.28
     1  GENPT   ................      0.01    2.15             0.00    0.00             0.01    1.95
     1  PTBAS   ................      0.00    0.52             0.00    0.00             0.00    0.47
     8  FOCKY   ................      0.04   74.64             0.00    8.54             0.04   66.88
     8  FOCKTR  ................      0.00    0.99             0.00    0.00             0.00    0.90
     8  SDIIS   ................      0.00    1.59             0.00    0.00             0.00    1.34
     1  COREPS  ................      0.02    5.60             0.00    0.00             0.02    4.95
     1  POPAN   ................      0.00    0.39             0.00    2.15             0.00    0.58
     1  DEBYE   ................      0.00    0.01             0.00    2.02             0.00    0.09
     1  EXIT PROCEDURE .........      0.02    5.31             0.00    4.58             0.02    5.24


 Currently Open Files (EXIT00)
 ====================

 Unit    Access Format  Status   Type       Ident (file)
 -------------------------------------------------------
   3      SEQ    FORM   TRANSP  NORMAL      LOGFILE
                                          ( logfile )


 Buffered I/O statistics
 =======================
 Memory available:                     67108864
 Number of records fitting in memory:     16131
 Input :   0.7% of                         2262  *4k bytes
 Output:  12.2% of                         1291  *4k bytes
 Records from serial files evicted:           0
                    others evicted:           0
 Hash table lookups:       9917 with          0 conflicts (  0.00%)

 ***************************************************************************************************
 (LOGFILE)
 <Jan26-2017> <17:06:23>  ADF 2016  RunTime: Jan26-2017 17:06:23  Nodes: 1  Procs: 1
 <Jan26-2017> <17:06:23>  Hydrogen (TZ2P)
 <Jan26-2017> <17:06:23>  RunType   : CREATE
 <Jan26-2017> <17:06:23>  Net Charge: 0 (Nuclei minus Electrons)
 <Jan26-2017> <17:06:23>  Symmetry  : ATOM
  Coordinates
    Atom         X           Y           Z   (Angstrom)
    1.H         0.000000    0.000000    0.000000
 <Jan26-2017> <17:06:23>  >>>> CORORT
 <Jan26-2017> <17:06:23>  >>>> CLSMAT
 <Jan26-2017> <17:06:23>  >>>> ORTHON
 <Jan26-2017> <17:06:23>  >>>> GENPT
 <Jan26-2017> <17:06:23>  Block Length=  64
 <Jan26-2017> <17:06:23>  >>>> PTBAS
 <Jan26-2017> <17:06:23>  >>>> CYCLE
 <Jan26-2017> <17:06:23>              |Error|         MaxErr       Wt(A-DIIS)
 <Jan26-2017> <17:06:23>      1      0.00000000      0.00000000
 <Jan26-2017> <17:06:23>      2      0.03100286      0.02644424
 <Jan26-2017> <17:06:23>      3      0.00958001      0.00932852    100.0
 <Jan26-2017> <17:06:23>      4      0.00232093      0.00228640      1.3
 <Jan26-2017> <17:06:23>      5      0.00003155      0.00002984      0.0
 <Jan26-2017> <17:06:23>      6      0.00000096      0.00000091      0.0
 <Jan26-2017> <17:06:23>      7      0.00000000      0.00000000      0.0
 <Jan26-2017> <17:06:23>  SCF converged
 <Jan26-2017> <17:06:23>      8      0.00000000      0.00000000      0.0
 <Jan26-2017> <17:06:23>   Solutions with partially occupied orbitals may not be
 <Jan26-2017> <17:06:23>   lowest in energy. You might consider lowering the
 <Jan26-2017> <17:06:23>   symmetry in the input and explicitly specifying integer
 <Jan26-2017> <17:06:23>   occupations. In that case always check that you obtain
 <Jan26-2017> <17:06:23>   an aufbau solution.
 <Jan26-2017> <17:06:23>  >>>> POPAN
 <Jan26-2017> <17:06:23>  >>>> DEBYE
 <Jan26-2017> <17:06:23>  NORMAL TERMINATION
 <Jan26-2017> <17:06:23>  END

Create C   file=/cm/shared/apps/adf2016.102/atomicdata/TZ2P/C.1s
XC
 GGA BLYP
 DISPERSION Grimme3 BJDAMP
End
End Input

 *******************************************************************************
 *                                                                             *
 *  -------------------------------------                                      *
 *   Amsterdam Density Functional  (ADF)         2016                          *
 *  -------------------------------------                                      *
 *                                               r52212 2016-04-25             *
 *                                                                             *
 *                                                                             *
 *                              =================                              *
 *                              |               |                              *
 *                              |     A D F     |                              *
 *                              |               |                              *
 *                              =================                              *
 *                                                                             *
 *                                                                             *
 *   Online information and documentation:  http://www.scm.com                 *
 *   E-mail:  support@scm.com   info@scm.com                                   *
 *                                                                             *
 *   Scientific publications using ADF results must be properly referenced     *
 *   See the User Manuals (or the web site) for recommended citations          *
 *   The terms and conditions of the End User License Agreement apply to       *
 *   the use of ADF, http://www.scm.com/Sales/LicAgreement.html                *
 *                                                                             *
 **********************  x86_64_linux_intel / intelmpi  ************************
 
 Licensed to: VU/FEW (+ SARA) / ALGEMEEN / Amsterdam / THE NETHERLANDS
 SCM User ID: u7668
  
 ADF 2016  RunTime: Jan26-2017 17:06:23  Nodes: 1  Procs: 1

 Temporary files are created in /tmp/kid_0.mnGc52

 Carbon (TZ2P, 1s frozen)



 ===========================
 A T T A C H E D   F I L E S
 ===========================
  
 CREATE - Data File:    /cm/shared/apps/adf2016.102/atomicdata/TZ2P/C.1s
                        Carbon (TZ2P, 1s frozen)



 ===============================
 M O D E L   P A R A M E T E R S
 ===============================
  
 DENSITY FUNCTIONAL POTENTIAL (scf)
    LDA:                               Exchange only                           == Not Default ==
    Gradient Corrections:              Becke88 LYP                             == Not Default ==

 SPIN  (restricted / unrestr.)
    Molecule:                          Restricted                               

 OTHER ASPECTS
    Relativistic Corrections:          ---                                      

    Nuclear Charge Density Model:      Point Charge Nuclei                                                                                                                                                                                     
    Core Treatment:                    Frozen Orbital(s)                        

    Hyperfine or Zeeman Interaction:   ---                                      

 Settings for Grimme 3 dispersion correction

      damping                        BJ
      s6                          1.000
      a1                          0.430
      s8                          2.700
      a2                          4.236

 Other (technical) parameters

      alpha                      14.000
      version                         4
 



 =====================================
 S Y M M E T R Y ,   E L E C T R O N S
 =====================================
  
 Symmetry: ATOM

 Irreducible Representations, including subspecies
 -------------------------------------------------
 S
 P:x  P:y  P:z
 D:z2  D:x2-y2  D:xy  D:xz  D:yz
 F:z3  F:z  F:xyz  F:z2x  F:z2y  F:x  F:y


 Configuration of Valence Electrons
 ==================================

          Occupation Numbers
          -------------------------------------------------
 S        2
 P        2
 D        0
 F        0
          -------------------------------------------------

 Total:   4

 Net Charge: 0 (Nuclei minus Electrons)

 Preset values for MO occupations will be applied through SCF cycle no. 1000000
 Thereafter, the program will assign electrons to MOs that are spatially
 similar to the occupied MOs in a "reference" cycle ("KeepOrbitals").
 The reference cycle is always the PREVIOUS cycle: it will evolve with
 the SCF procedure.



 ================================
 (Slater-type)  F U N C T I O N S  ***  (Basis and Fit)  ***
 ================================
  

 Atom Type    1  (C)
 ==============

 Valence Basis Sets:   9
 -----------------------
   1 S    5.400000
   2 S    1.280000
   2 S    2.100000
   2 S    4.600000
   2 P    0.820000
   2 P    1.480000
   2 P    2.940000
   3 D    2.200000
   4 F    3.300000

 Frozen Core Shells
 ------------------
    S:  1


 BAS: List of all Elementary Cartesian Basis Functions
 =====================================================

 The numbering in the list below (to the right of the function characteristics) is referred
 to in print-outs of MO eigenvectors and Mulliken populations in the BAS representation
 (as contrasted to the SFO representation).

 Notes:
 1. The functions are characterized by a polynomial prefactor (powers of x,y,z and r) and
    an exponential decay factor alpha.
 2. Since the basis sets are specific for an atom TYPE, the individual functions occur on
    all atoms of that type.
 3. The word 'Core' in the left margin signals that it is a Core Function (CF) : not a
    degree of freedom in the valence set, but only used to ensure orthogonalization of
    the other valence basis functions on the frozen Core Orbitals.


 (power of) X  Y  Z  R     Alpha  on Atom
            ==========     =====     ==========

 C                                    1
                                  ---------------------------------------------------------------------------
    Core    0  0  0  0     5.400      1
            0  0  0  1     1.280      2
            0  0  0  1     2.100      3
            0  0  0  1     4.600      4
            1  0  0  0     0.820      5
            0  1  0  0     0.820      6
            0  0  1  0     0.820      7
            1  0  0  0     1.480      8
            0  1  0  0     1.480      9
            0  0  1  0     1.480     10
            1  0  0  0     2.940     11
            0  1  0  0     2.940     12
            0  0  1  0     2.940     13
            2  0  0  0     2.200     14
            1  1  0  0     2.200     15
            1  0  1  0     2.200     16
            0  2  0  0     2.200     17
            0  1  1  0     2.200     18
            0  0  2  0     2.200     19
            3  0  0  0     3.300     20
            2  1  0  0     3.300     21
            2  0  1  0     3.300     22
            1  2  0  0     3.300     23
            1  1  1  0     3.300     24
            1  0  2  0     3.300     25
            0  3  0  0     3.300     26
            0  2  1  0     3.300     27
            0  1  2  0     3.300     28
            0  0  3  0     3.300     29

 Total number of charge fitting functions (nprimf)        82
 Total number of Cartesian basis functions (naos)         29
 Total number of Cartesian core functions  (ncos)          1



 BAS: List of all Elementary Cartesian Basis Functions
 =====================================================

 The numbering in the list below (to the right of the function characteristics) is referred
 to in print-outs of MO eigenvectors and Mulliken populations in the BAS representation
 (as contrasted to the SFO representation).

 Notes:
 1. The functions are characterized by a polynomial prefactor (powers of x,y,z and r) and
    an exponential decay factor alpha.
 2. Since the basis sets are specific for an atom TYPE, the individual functions occur on
    all atoms of that type.
 3. The word 'Core' in the left margin signals that it is a Core Function (CF) : not a
    degree of freedom in the valence set, but only used to ensure orthogonalization of
    the other valence basis functions on the frozen Core Orbitals.


 (power of) X  Y  Z  R     Alpha  on Atom
            ==========     =====     ==========

 C                                    1
                                  ---------------------------------------------------------------------------
    Core    0  0  0  0     5.400      1
            0  0  0  1     1.280      2
            0  0  0  1     2.100      3
            0  0  0  1     4.600      4
            1  0  0  0     0.820      5
            0  1  0  0     0.820      6
            0  0  1  0     0.820      7
            1  0  0  0     1.480      8
            0  1  0  0     1.480      9
            0  0  1  0     1.480     10
            1  0  0  0     2.940     11
            0  1  0  0     2.940     12
            0  0  1  0     2.940     13
            2  0  0  0     2.200     14
            1  1  0  0     2.200     15
            1  0  1  0     2.200     16
            0  2  0  0     2.200     17
            0  1  1  0     2.200     18
            0  0  2  0     2.200     19
            3  0  0  0     3.300     20
            2  1  0  0     3.300     21
            2  0  1  0     3.300     22
            1  2  0  0     3.300     23
            1  1  1  0     3.300     24
            1  0  2  0     3.300     25
            0  3  0  0     3.300     26
            0  2  1  0     3.300     27
            0  1  2  0     3.300     28
            0  0  3  0     3.300     29
1
 ***************************************************************************************************



                                              ***********************
                                              *  T E C H N I C A L  *
                                              ***********************
  



 =============================================================
 P A R A L L E L I Z A T I O N  and  V E C T O R I Z A T I O N
 =============================================================
  
 Nr of parallel processes:                                1
 Maximum vector length in NumInt loops:                 128

 IO buffersize (Mb):                                     64.000000



 =====================
 S C F   U P D A T E S
 =====================
  
 Max. nr. of cycles:                               300
 Convergence criterion:                              0.0000000100
   secondary criterion:                              0.0000000100

 Mix parameter (when DIIS does not apply):           0.2000000000
 Special mix parameter for the first cycle:          1.0000000000
 Mixed ADIIS+DIIS will be used
    Max number of expansion vectors:                10
    Pure ADIIS when Max([F,P]) is above              0.1000000000
    Pure DIIS when Max([F,P]) is below               0.0010000000
 Automatic ElectronSmearing (in case of problematic SCF convergence) disabled



 =================
 P R E C I S I O N  ***  (General: NumInt, NeglectFunctionTails, ...)  ***
 =================
  

 NumInt:           Target precision:                12.0000000000
 -------           Initial precision:               10.0000000000
                   Min. precision (optimization):   10.0000000000

 Neglect Functions:          Basis functions:        0.1000000000E-13
 ------------------          Fit functions:          0.1000000000E-13



 ===========================
 L I N E A R   S C A L I N G
 ===========================
  

 Cut-off radii density fit:                        0.1000000000E-97
 Overlap cut-off criterion AO matrix elements:     0.1000000000E-97
 Cut-offs for Coulomb potential and fitted density:0.1000000000E-97
 Cut-off criterion for Coulomb multipole terms:    0.1000000000E-97
 Progressive Convergence parameter:                 0.000000000    
1
 ***************************************************************************************************



                                            ***************************
                                            *  C O M P U T A T I O N  *
                                            ***************************
  

 Number of elements of the density matrix on this node (used, total):       435       435



 ===========================================
 Numerical Integration : Fuzzy Cells (Becke)
 ===========================================
  
 Becke grid quality: VERYGOOD       
  
 Lebedev angular grid order:             min:  13 max:  41
 Nr. of radial points:                   min:  72 max:  72

 Total nr. of points:         72
 Nr. of blocks:                1
 Block length:                72
 Nr. of dummy points:          0


 Test of Precision of the Numerical Integration Grid
 ===================================================

 Integral of the Total Core Density:                   1.99999999979427
 Relative Error:                                      -1.029E-10



 ========================
 Density Fitting (zlmFit)
 ========================
  
 ZlmFit Fit Quality: VERYGOOD       
  
 Max L-expansion:                        min:   0 max:   0
 Nr. of radial interpolation points:     min: 160 max: 160



 =====
 S C F  ***  ScaSCF  ***
 =====
  

 CYCLE    1
 SCF Error: norm([F,P])=      0.000000000000, max([F,P])=      0.000000000000
 orbitals (Q,E):
 ---------------
 S :1...3            ( 2.00    -2.7100)  ( 0.00    -1.0477)  ( 0.00     7.2730)
 P :1...3            ( 2.00    -2.4323)  ( 0.00    -0.9431)  ( 0.00    -0.0267)
 D :1...1            ( 0.00    -0.7429)
 F :1...1            ( 0.00     1.8490)

 CYCLE    2
 SCF Error: norm([F,P])=      1.488359154795, max([F,P])=      1.172636442499
 orbitals (Q,E):
 ---------------
 S :1...2            ( 2.00    -0.1741)  ( 0.00     0.7402)
 P :1...2            ( 2.00     0.0476)  ( 0.00     0.4167)
 D :1...1            ( 0.00     1.5844)
 F :1...1            ( 0.00     4.4223)

 CYCLE    3
  SDIIS (wt  0.000):  0.3529  0.6471
 A-DIIS (wt  1.000):  0.3571  0.6429
  DIIS coefficients:  0.3571  0.6429
 SCF Error: norm([F,P])=      0.879057942881, max([F,P])=      0.727768943625
 orbitals (Q,E):
 ---------------
 S :1...2            ( 2.00    -0.6345)  ( 0.00     0.3411)
 P :1...2            ( 2.00    -0.3215)  ( 0.00     0.1183)
 D :1...1            ( 0.00     1.1114)
 F :1...1            ( 0.00     3.8713)

 CYCLE    4
  SDIIS (wt  0.000):  0.1703  0.8297
 A-DIIS (wt  1.000):  0.0000  1.0000
  DIIS coefficients:  0.0000  1.0000
 SCF Error: norm([F,P])=      0.185227645558, max([F,P])=      0.145318551704
 orbitals (Q,E):
 ---------------
 S :1...2            ( 2.00    -0.4267)  ( 0.00     0.4867)
 P :1...2            ( 2.00    -0.1266)  ( 0.00     0.2051)
 D :1...1            ( 0.00     1.3140)
 F :1...1            ( 0.00     4.0988)

 CYCLE    5
  SDIIS (wt  0.000): -0.0161  0.4633  0.5528
 A-DIIS (wt  1.000):  0.0000  0.4635  0.5365
  DIIS coefficients:  0.0000  0.4635  0.5365
 SCF Error: norm([F,P])=      0.180115194335, max([F,P])=      0.145073844612
 orbitals (Q,E):
 ---------------
 S :1...2            ( 2.00    -0.5058)  ( 0.00     0.4281)
 P :1...2            ( 2.00    -0.1979)  ( 0.00     0.1664)
 D :1...1            ( 0.00     1.2377)
 F :1...1            ( 0.00     4.0104)

 CYCLE    6
  SDIIS (wt  0.936): -0.0002 -0.0166  0.0345  0.9824
 A-DIIS (wt  0.064):  0.0000  0.0000  0.0000  1.0000
  DIIS coefficients: -0.0002 -0.0155  0.0323  0.9835
 SCF Error: norm([F,P])=      0.009242633886, max([F,P])=      0.007348150137
 orbitals (Q,E):
 ---------------
 S :1...2            ( 2.00    -0.5006)  ( 0.00     0.4317)
 P :1...2            ( 2.00    -0.1931)  ( 0.00     0.1684)
 D :1...1            ( 0.00     1.2427)
 F :1...1            ( 0.00     4.0160)

 CYCLE    7
  SDIIS (wt  1.000):  0.0002  0.0024 -0.0065 -0.0804  1.0844
  DIIS coefficients:  0.0002  0.0024 -0.0065 -0.0804  1.0844
 SCF Error: norm([F,P])=      0.000669222019, max([F,P])=      0.000541070438
 orbitals (Q,E):
 ---------------
 S :1...2            ( 2.00    -0.5009)  ( 0.00     0.4315)
 P :1...2            ( 2.00    -0.1934)  ( 0.00     0.1682)
 D :1...1            ( 0.00     1.2424)
 F :1...1            ( 0.00     4.0157)

 CYCLE    8
  SDIIS (wt  1.000):  0.0000  0.0001 -0.0002 -0.0031  0.0271  0.9761
  DIIS coefficients:  0.0000  0.0001 -0.0002 -0.0031  0.0271  0.9761
 SCF Error: norm([F,P])=      0.000001066384, max([F,P])=      0.000000716508
 orbitals (Q,E):
 ---------------
 S :1...2            ( 2.00    -0.5009)  ( 0.00     0.4315)
 P :1...2            ( 2.00    -0.1934)  ( 0.00     0.1682)
 D :1...1            ( 0.00     1.2424)
 F :1...1            ( 0.00     4.0157)

 CYCLE    9
  SDIIS (wt  1.000): -0.0000 -0.0003 -0.0060  1.0063
  DIIS coefficients: -0.0000 -0.0003 -0.0060  1.0063
 SCF Error: norm([F,P])=      0.000000034813, max([F,P])=      0.000000028254
 orbitals (Q,E):
 ---------------
 S :1...2            ( 2.00    -0.5009)  ( 0.00     0.4315)
 P :1...2            ( 2.00    -0.1934)  ( 0.00     0.1682)
 D :1...1            ( 0.00     1.2424)
 F :1...1            ( 0.00     4.0157)

 CYCLE   10
  SDIIS (wt  1.000): -0.0000  0.0055  0.9945
  DIIS coefficients: -0.0000  0.0055  0.9945
 SCF Error: norm([F,P])=      0.000000000198, max([F,P])=      0.000000000163
 orbitals (Q,E):
 ---------------
 S :1...2            ( 2.00    -0.5009)  ( 0.00     0.4315)
 P :1...2            ( 2.00    -0.1934)  ( 0.00     0.1682)
 D :1...1            ( 0.00     1.2424)
 F :1...1            ( 0.00     4.0157)

 SCF CONVERGED

 CYCLE   11
1
 ***************************************************************************************************



                                                *******************
                                                *  R E S U L T S  *
                                                *******************
  
 *** Setting up for NEW gradients in Focky
 *** Using FIT density in Focky

 Orbital Energies, per Irrep and Spin:
 ======================================
                        Occup              E (au)              E (eV)       Diff (eV) with prev. cycle
                        -----      --------------------        ------       --------------------------
 S
               1        2.000     -0.50091503293390E+00       -13.631              -3.24E-10
               2        0.000      0.43147697802924E+00        11.741
               3        0.000      0.99442298298751E+01       270.596
 P
               1        2.000     -0.19339375649409E+00        -5.263              -3.03E-10
               2        0.000      0.16824223131024E+00         4.578
               3        0.000      0.20124399415070E+01        54.761
 D
               1        0.000      0.12424153298507E+01        33.808
 F
               1        0.000      0.40157066112432E+01       109.273


 Partially Occupied:
               1 P                -0.19339375649409E+00
  
 HOMO :        1 S                -0.50091503293390E+00
 LUMO :        2 P                 0.16824223131024E+00
  


 Orbital Energies, all Irreps
 ========================================

 Irrep        no.  (spin)   Occup              E (au)                E (eV)
 ---------------------------------------------------------------------------
 S             1             2.00       -0.50091503293390E+00       -13.6306
 P             1             2.00       -0.19339375649409E+00        -5.2625
 P             2             0.00        0.16824223131024E+00         4.5781
 S             2             0.00        0.43147697802924E+00        11.7411
 D             1             0.00        0.12424153298507E+01        33.8078
 P             3             0.00        0.20124399415070E+01        54.7613
 F             1             0.00        0.40157066112432E+01       109.2729
 S             3             0.00        0.99442298298751E+01       270.5963


 Orbital Energies of the Core Orbitals:
 ======================================
 (Note that the atoms are grouped by atomtype, see the labels, and may hence NOT be in input order)

 AtomType  Orbital  Atom                   E (au)                        E (eV)
 --------  -------  ----           --------------------        ----------------
 C           1S        1          -0.10074490393827E+02                -274.141



 =======================================
 M U L L I K E N   P O P U L A T I O N S
 =======================================
  
 The survey below gives for each atom:
 a) the total charge (Z minus electrons)
 b) the net spin polarization (nr of electrons spin-A minus spin-B)
 c) for each spin the atomic electron valence density (integrated) per L-value.

 Atom              Charge    Spin density          S         P         D         F
 ----              ------    ------------       ------    ------    ------    ------
 1 C               0.0000                       2.0000    2.0000    0.0000    0.0000

 Populations of individual BAS functions
 ----------------------------------------
 1 C            0.0004  0.9609  1.0765 -0.0379  0.1797  0.1797  0.1797  0.3778  0.3778  0.3778
                0.1092  0.1092  0.1092  0.0000  0.0000  0.0000  0.0000  0.0000  0.0000  0.0000
                0.0000  0.0000  0.0000  0.0000  0.0000  0.0000  0.0000  0.0000  0.0000

 Gross Charges per Atom (Z minus electrons)
 ==========================================
             0.0000
 Net Total:  0.00000000



 =======================================================================
 Electrostatic potential at the Nuclei due to electrons and other nuclei
 =======================================================================
  
         Atom                  Potential
         ----                  ---------
     1)   C                  14.61957999
 
 
 ========================
 No memory problems found
 ========================
 
 Maximum number of active allocate calls:         460
 
 *******************************************************************************

                             A D F   E X I T
 NORMAL TERMINATION



 =================
 Timing Statistics
 =================
  
 Total Used :                     CPU=        0.61      System=        0.06     Elapsed=        0.68

 Calls  Section                     ( Mean, Percentage )
 ---------------------------------------------------------------------------------------------------
     3  ><      ................      0.00    0.17             0.00    0.00             0.00    0.13
     1  INIT    ................      0.01    2.09             0.03   42.41             0.05    6.84
     1  GEOMET  ................      0.01    1.45             0.01   16.02             0.02    2.76
     1  INPUTA  ................      0.00    0.19             0.00    1.46             0.00    0.33
     1  MAINSY  ................      0.01    1.14             0.00    3.12             0.01    1.31
     1  SYMFIT  ................      0.00    0.04             0.00    0.20             0.00    0.05
     1  CORORT  ................      0.00    0.08             0.00    0.10             0.00    0.07
     1  SYMORB  ................      0.00    0.21             0.00    0.00             0.00    0.18
     1  CLSMAT  ................      0.00    0.61             0.00    1.58             0.00    0.68
     1  ORTHON  ................      0.00    0.22             0.00    0.02             0.00    0.23
     1  GENPT   ................      0.01    1.99             0.00    1.54             0.01    1.93
     1  PTBAS   ................      0.00    0.34             0.00    1.13             0.00    0.35
    11  FOCKY   ................      0.04   79.49             0.00   22.23             0.05   73.31
    11  FOCKTR  ................      0.00    1.07             0.00    1.71             0.00    1.19
    11  SDIIS   ................      0.00    1.45             0.00    1.95             0.00    1.45
     1  COREPS  ................      0.03    5.16             0.00    1.76             0.03    4.89
     1  POPAN   ................      0.00    0.54             0.00    0.00             0.00    0.49
     1  DEBYE   ................      0.00    0.01             0.00    1.44             0.00    0.08
     1  EXIT PROCEDURE .........      0.02    3.74             0.00    3.34             0.03    3.72


 Currently Open Files (EXIT00)
 ====================

 Unit    Access Format  Status   Type       Ident (file)
 -------------------------------------------------------
   3      SEQ    FORM   TRANSP  NORMAL      LOGFILE
                                          ( logfile )


 Buffered I/O statistics
 =======================
 Memory available:                     67108864
 Number of records fitting in memory:     16131
 Input :   0.4% of                         3583  *4k bytes
 Output:  11.2% of                         1659  *4k bytes
 Records from serial files evicted:           0
                    others evicted:           0
 Hash table lookups:      14750 with          0 conflicts (  0.00%)

 ***************************************************************************************************
 (LOGFILE)
 <Jan26-2017> <17:06:23>  ADF 2016  RunTime: Jan26-2017 17:06:23  Nodes: 1  Procs: 1
 <Jan26-2017> <17:06:23>  Hydrogen (TZ2P)
 <Jan26-2017> <17:06:23>  RunType   : CREATE
 <Jan26-2017> <17:06:23>  Net Charge: 0 (Nuclei minus Electrons)
 <Jan26-2017> <17:06:23>  Symmetry  : ATOM
  Coordinates
    Atom         X           Y           Z   (Angstrom)
    1.H         0.000000    0.000000    0.000000
 <Jan26-2017> <17:06:23>  >>>> CORORT
 <Jan26-2017> <17:06:23>  >>>> CLSMAT
 <Jan26-2017> <17:06:23>  >>>> ORTHON
 <Jan26-2017> <17:06:23>  >>>> GENPT
 <Jan26-2017> <17:06:23>  Block Length=  64
 <Jan26-2017> <17:06:23>  >>>> PTBAS
 <Jan26-2017> <17:06:23>  >>>> CYCLE
 <Jan26-2017> <17:06:23>              |Error|         MaxErr       Wt(A-DIIS)
 <Jan26-2017> <17:06:23>      1      0.00000000      0.00000000
 <Jan26-2017> <17:06:23>      2      0.03100286      0.02644424
 <Jan26-2017> <17:06:23>      3      0.00958001      0.00932852    100.0
 <Jan26-2017> <17:06:23>      4      0.00232093      0.00228640      1.3
 <Jan26-2017> <17:06:23>      5      0.00003155      0.00002984      0.0
 <Jan26-2017> <17:06:23>      6      0.00000096      0.00000091      0.0
 <Jan26-2017> <17:06:23>      7      0.00000000      0.00000000      0.0
 <Jan26-2017> <17:06:23>  SCF converged
 <Jan26-2017> <17:06:23>      8      0.00000000      0.00000000      0.0
 <Jan26-2017> <17:06:23>   Solutions with partially occupied orbitals may not be
 <Jan26-2017> <17:06:23>   lowest in energy. You might consider lowering the
 <Jan26-2017> <17:06:23>   symmetry in the input and explicitly specifying integer
 <Jan26-2017> <17:06:23>   occupations. In that case always check that you obtain
 <Jan26-2017> <17:06:23>   an aufbau solution.
 <Jan26-2017> <17:06:23>  >>>> POPAN
 <Jan26-2017> <17:06:23>  >>>> DEBYE
 <Jan26-2017> <17:06:23>  NORMAL TERMINATION
 <Jan26-2017> <17:06:23>  END
 <Jan26-2017> <17:06:23>  ADF 2016  RunTime: Jan26-2017 17:06:23  Nodes: 1  Procs: 1
 <Jan26-2017> <17:06:23>  Carbon (TZ2P, 1s frozen)
 <Jan26-2017> <17:06:23>  RunType   : CREATE
 <Jan26-2017> <17:06:23>  Net Charge: 0 (Nuclei minus Electrons)
 <Jan26-2017> <17:06:23>  Symmetry  : ATOM
  Coordinates
    Atom         X           Y           Z   (Angstrom)
    1.C         0.000000    0.000000    0.000000
 <Jan26-2017> <17:06:23>  >>>> CORORT
 <Jan26-2017> <17:06:23>  >>>> CLSMAT
 <Jan26-2017> <17:06:23>  >>>> ORTHON
 <Jan26-2017> <17:06:23>  >>>> GENPT
 <Jan26-2017> <17:06:23>  Block Length=  72
 <Jan26-2017> <17:06:23>  >>>> PTBAS
 <Jan26-2017> <17:06:23>  >>>> CYCLE
 <Jan26-2017> <17:06:24>              |Error|         MaxErr       Wt(A-DIIS)
 <Jan26-2017> <17:06:24>      1      0.00000000      0.00000000
 <Jan26-2017> <17:06:24>      2      1.48835915      1.17263644
 <Jan26-2017> <17:06:24>      3      0.87905794      0.72776894    100.0
 <Jan26-2017> <17:06:24>      4      0.18522765      0.14531855    100.0
 <Jan26-2017> <17:06:24>      5      0.18011519      0.14507384    100.0
 <Jan26-2017> <17:06:24>      6      0.00924263      0.00734815      6.4
 <Jan26-2017> <17:06:24>      7      0.00066922      0.00054107      0.0
 <Jan26-2017> <17:06:24>      8      0.00000107      0.00000072      0.0
 <Jan26-2017> <17:06:24>      9      0.00000003      0.00000003      0.0
 <Jan26-2017> <17:06:24>     10      0.00000000      0.00000000      0.0
 <Jan26-2017> <17:06:24>  SCF converged
 <Jan26-2017> <17:06:24>     11      0.00000000      0.00000000      0.0
 <Jan26-2017> <17:06:24>   Solutions with partially occupied orbitals may not be
 <Jan26-2017> <17:06:24>   lowest in energy. You might consider lowering the
 <Jan26-2017> <17:06:24>   symmetry in the input and explicitly specifying integer
 <Jan26-2017> <17:06:24>   occupations. In that case always check that you obtain
 <Jan26-2017> <17:06:24>   an aufbau solution.
 <Jan26-2017> <17:06:24>  >>>> POPAN
 <Jan26-2017> <17:06:24>  >>>> DEBYE
 <Jan26-2017> <17:06:24>  NORMAL TERMINATION
 <Jan26-2017> <17:06:24>  END


 Parallel Execution: Process Information
 ==============================================================================
 Rank   Node Name                              NodeID   MyNodeRank  NodeMaster
    0   node130                                   0          0          0
    1   node130                                   0          1         -1
    2   node130                                   0          2         -1
    3   node130                                   0          3         -1
    4   node130                                   0          4         -1
    5   node130                                   0          5         -1
    6   node130                                   0          6         -1
    7   node130                                   0          7         -1
 ==============================================================================




TITLE ethene_blyp_transit

XC
 GGA BLYP
 DISPERSION Grimme3 BJDAMP
END

Geometry
optim deloc
converge 0.00001
iterations 200
transit 3
End

Constraints
  DIST 1 2 start=1.183 end=1.473
End

NumericalQuality Good

CHARGE 0

SYMMETRY C(S)

SCF
iterations 199
END

ATOMS
    1.C        -0.000000    0.000000    0.666639
    2.C        -0.000000    0.000000   -0.666639
    3.H        -0.000000   -0.925913    1.239028
    4.H        -0.000000    0.925913    1.239028
    5.H        -0.000000   -0.925913   -1.239028
    6.H        -0.000000    0.925913   -1.239028
END

Fragments
H t21.H
C t21.C
End
end input

 *******************************************************************************
 *                                                                             *
 *  -------------------------------------                                      *
 *   Amsterdam Density Functional  (ADF)         2016                          *
 *  -------------------------------------                                      *
 *                                               r52212 2016-04-25             *
 *                                                                             *
 *                                                                             *
 *                              =================                              *
 *                              |               |                              *
 *                              |     A D F     |                              *
 *                              |               |                              *
 *                              =================                              *
 *                                                                             *
 *                                                                             *
 *   Online information and documentation:  http://www.scm.com                 *
 *   E-mail:  support@scm.com   info@scm.com                                   *
 *                                                                             *
 *   Scientific publications using ADF results must be properly referenced     *
 *   See the User Manuals (or the web site) for recommended citations          *
 *   The terms and conditions of the End User License Agreement apply to       *
 *   the use of ADF, http://www.scm.com/Sales/LicAgreement.html                *
 *                                                                             *
 **********************  x86_64_linux_intel / intelmpi  ************************
 
 Licensed to: VU/FEW (+ SARA) / ALGEMEEN / Amsterdam / THE NETHERLANDS
 SCM User ID: u7668
  
 ADF 2016  RunTime: Jan26-2017 17:06:24  Nodes: 1  Procs: 8

 Temporary files are created in /tmp/kid_0.kV66D7


Communication costs MPI_COMM_WORLD:      3.093 usec per message,   0.0378 usec per 8-byte item
Communication costs for intra-node:      3.097 usec per message,   0.0377 usec per 8-byte item

 ethene_blyp_transit



 ===========================
 A T T A C H E D   F I L E S
 ===========================
  



 ===============================
 M O D E L   P A R A M E T E R S
 ===============================
  
 DENSITY FUNCTIONAL POTENTIAL (scf)
    LDA:                               Exchange only                           == Not Default ==
    Gradient Corrections:              Becke88 LYP                             == Not Default ==

 SPIN  (restricted / unrestr.)
    Molecule:                          Restricted                               
    Fragments:                         Restricted                               

 OTHER ASPECTS
    Relativistic Corrections:          ---                                      

    Nuclear Charge Density Model:      Point Charge Nuclei                                                                                                                                                                                     
    Core Treatment:                    Frozen Orbital(s)                        

    Hyperfine or Zeeman Interaction:   ---                                      

 Settings for Grimme 3 dispersion correction

      damping                        BJ
      s6                          1.000
      a1                          0.430
      s8                          2.700
      a2                          4.236

 Other (technical) parameters

      alpha                      14.000
      version                         4
 

 WARNING: the symmetry specified in input ( C(S) ) is not the full symmetry ( D(2H) ).
 ADF will NOT adapt the orientation of the molecule. If this leads to an error you should
 specify the coordinates in CARTESIANS (or ZCART) with a suitable orientation.


 Fragment File(s)
 ----------------
 C:
         file : t21.C
         jobid: ADF 2016  RunTime: Jan26-2017 17:06:23  Nodes: 1  Procs: 1
         title: Carbon (TZ2P, 1s frozen)
 H:
         file : t21.H
         jobid: ADF 2016  RunTime: Jan26-2017 17:06:23  Nodes: 1  Procs: 1
         title: Hydrogen (TZ2P)



                                       **************************************
                                       *  R U N   T Y P E : LINEAR TRANSIT  *
                                       **************************************
  



 ===============
 G E O M E T R Y  ***  Planar Molecule  ***
 ===============
  

 ATOMS
 =====                            X Y Z                    CHARGE
                                (Angstrom)             Nucl     +Core       At.Mass
                       --------------------------    ----------------       -------
    1  C               0.0000    0.0000    0.6666      6.00      4.00       12.0000
    2  C               0.0000    0.0000   -0.6666      6.00      4.00       12.0000
    3  H               0.0000   -0.9259    1.2390      1.00      1.00        1.0078
    4  H               0.0000    0.9259    1.2390      1.00      1.00        1.0078
    5  H               0.0000   -0.9259   -1.2390      1.00      1.00        1.0078
    6  H               0.0000    0.9259   -1.2390      1.00      1.00        1.0078


 FRAGMENTS
 =========                                     Atoms in this Fragment     Cart. coord.s (Angstrom)
                                               -------------------------------------------------------
    1  C                                                 1  C            0.0000    0.0000    0.6666
    2  C                                                 2  C            0.0000    0.0000   -0.6666
    3  H                                                 3  H            0.0000   -0.9259    1.2390
    4  H                                                 4  H            0.0000    0.9259    1.2390
    5  H                                                 5  H            0.0000   -0.9259   -1.2390
    6  H                                                 6  H            0.0000    0.9259   -1.2390


 Interatomic Distance Matrix (Angstrom)
 --------------------------------------

   1)     0.000
   2)     1.333   0.000
   3)     1.089   2.119   0.000
   4)     1.089   2.119   1.852   0.000
   5)     2.119   1.089   2.478   3.094   0.000
   6)     2.119   1.089   3.094   2.478   1.852   0.000

 Min. Distance =    1.0886
 Max. Distance =    3.0935



 =====================================
 S Y M M E T R Y ,   E L E C T R O N S
 =====================================
  
 Symmetry: C(S)

 Irreducible Representations, including subspecies
 -------------------------------------------------
 AA
 AAA


 Configuration of Valence Electrons
 ==================================
 ( determined in the SCF procedure )

 Total:   12

 Net Charge: 0 (Nuclei minus Electrons)

 Aufbau principle for MO occupations will be applied through SCF cycle no.      99
 Thereafter, the program will assign electrons to MOs that are spatially
 similar to the occupied MOs in a "reference" cycle ("KeepOrbitals").
 The reference cycle is always the PREVIOUS cycle: it will evolve with
 the SCF procedure.
1
 ***************************************************************************************************



                                      ****************************************
                                      *  B U I L D : (Fragments, Functions)  *
                                      ****************************************
  



 =======
 S F O s  ***  (Symmetrized Fragment Orbitals)  ***
 =======
  
 SFOs are linear combinations of (valence) Fragment Orbitals (FOs), such that the SFOs transform as the
 irreducible representations of the (molecular) symmetry group. Each SFO is therefore characterized by
 an irrep of the molecule and by a few (or only one) generating FOs.
 The SFOs constitute a symmetry-adapted basis for the Fock matrix. The MO eigenvector coefficients in
 this basis provide a direct interpretation of the MOs in terms of Frontier Orbital Theory.

 The SFOs are combined with auxiliary Core Functions (CFs) to ensure orthogonalization on the (frozen)
 Core Orbitals (COs). The Core-orthogonalized SFOs (CSFOs) constitute the true Fock basis.

 The FOs, and hence also the (C)SFOs are combinations of the elementary basis functions (BAS). The basis
 functions that participate in the description of the SFOs depend on the irrep. The indices of the
 involved functions are printed below for each irrep.
 (The complete list of primitive basis functions is printed in another section)

 Total nr. of (C)SFOs (summation over all irreps) :    92

 NOTE: a (C)SFO that is defined as a combination of more than one FO is usually NOT normalized.



                                       === AA ===
 Nr. of SFOs :   46
 Cartesian basis functions that participate in this irrep (total number =   106) :
      1    30     2    31     3    32     4    33     7    36
     10    39    13    42     5     6    34    35     8     9
     37    38    11    12    40    41    19    48    16    18
     45    47    14    15    17    43    44    46    29    58
     25    28    54    57    22    24    27    51    53    56
     20    21    23    26    49    50    52    55    59    83
     60    84    61    85    64    88    62    63    86    87
     70    94    67    69    91    93    65    66    68    89
     90    92    71    95    72    96    73    97    76   100
     74    75    98    99    82   106    79    81   103   105
     77    78    80   101   102   104

    SFO  (index         Fragment          Generating    Expansion in Fragment Orbitals
  indx  incl.CFs)   Occup   Orb.Energy   FragmentType  Coeff.   Orbital     on Fragment
 --------------------------------------------------------------------------------------
     1       3      2.000      -0.501 au  C             0.71      1 S               1
                        (     -13.631 eV)               0.71      1 S               2
     2       4       --         0.431 au  C             0.71      2 S               1
                        (      11.741 eV)               0.71      2 S               2
     3       5       --         9.944 au  C             0.71      3 S               1
                        (     270.596 eV)               0.71      3 S               2
     4       6      0.667      -0.193 au  C             0.71      1 P:x             1
                        (      -5.263 eV)               0.71      1 P:x             2
     5       7       --         0.168 au  C             0.71      2 P:x             1
                        (       4.578 eV)               0.71      2 P:x             2
     6       8       --         2.012 au  C             0.71      3 P:x             1
                        (      54.761 eV)               0.71      3 P:x             2
     7       9      0.667      -0.193 au  C             0.71      1 P:y             1
                        (      -5.263 eV)               0.71      1 P:y             2
     8      10       --         0.168 au  C             0.71      2 P:y             1
                        (       4.578 eV)               0.71      2 P:y             2
     9      11       --         2.012 au  C             0.71      3 P:y             1
                        (      54.761 eV)               0.71      3 P:y             2
    10      12      0.667      -0.193 au  C             0.71      1 P:z             1
                        (      -5.263 eV)              -0.71      1 P:z             2
    11      13       --         0.168 au  C             0.71      2 P:z             1
                        (       4.578 eV)              -0.71      2 P:z             2
    12      14       --         2.012 au  C             0.71      3 P:z             1
                        (      54.761 eV)              -0.71      3 P:z             2
    13      15       --         1.242 au  C             0.71      1 D:z2            1
                        (      33.808 eV)               0.71      1 D:z2            2
    14      16       --         1.242 au  C             0.71      1 D:x2-y2         1
                        (      33.808 eV)               0.71      1 D:x2-y2         2
    15      17       --         1.242 au  C             0.71      1 D:xy            1
                        (      33.808 eV)               0.71      1 D:xy            2
    16      18       --         1.242 au  C             0.71      1 D:xz            1
                        (      33.808 eV)              -0.71      1 D:xz            2
    17      19       --         1.242 au  C             0.71      1 D:yz            1
                        (      33.808 eV)              -0.71      1 D:yz            2
    18      20       --         4.016 au  C             0.71      1 F:z3            1
                        (     109.273 eV)              -0.71      1 F:z3            2
    19      21       --         4.016 au  C             0.71      1 F:z             1
                        (     109.273 eV)              -0.71      1 F:z             2
    20      22       --         4.016 au  C             0.71      1 F:xyz           1
                        (     109.273 eV)              -0.71      1 F:xyz           2
    21      23       --         4.016 au  C             0.71      1 F:z2x           1
                        (     109.273 eV)               0.71      1 F:z2x           2
    22      24       --         4.016 au  C             0.71      1 F:z2y           1
                        (     109.273 eV)               0.71      1 F:z2y           2
    23      25       --         4.016 au  C             0.71      1 F:x             1
                        (     109.273 eV)               0.71      1 F:x             2
    24      26       --         4.016 au  C             0.71      1 F:y             1
                        (     109.273 eV)               0.71      1 F:y             2
    25      27      1.000      -0.240 au  H             0.71      1 S               3
                        (      -6.532 eV)               0.71      1 S               5
    26      28       --         0.088 au  H             0.71      2 S               3
                        (       2.394 eV)               0.71      2 S               5
    27      29       --         1.502 au  H             0.71      3 S               3
                        (      40.877 eV)               0.71      3 S               5
    28      30       --         0.406 au  H             0.71      1 P:x             3
                        (      11.052 eV)               0.71      1 P:x             5
    29      31       --         0.406 au  H             0.71      1 P:y             3
                        (      11.052 eV)               0.71      1 P:y             5
    30      32       --         0.406 au  H             0.71      1 P:z             3
                        (      11.052 eV)              -0.71      1 P:z             5
    31      33       --         2.570 au  H             0.71      1 D:z2            3
                        (      69.925 eV)               0.71      1 D:z2            5
    32      34       --         2.570 au  H             0.71      1 D:x2-y2         3
                        (      69.925 eV)               0.71      1 D:x2-y2         5
    33      35       --         2.570 au  H             0.71      1 D:xy            3
                        (      69.925 eV)               0.71      1 D:xy            5
    34      36       --         2.570 au  H             0.71      1 D:xz            3
                        (      69.925 eV)              -0.71      1 D:xz            5
    35      37       --         2.570 au  H             0.71      1 D:yz            3
                        (      69.925 eV)              -0.71      1 D:yz            5
    36      38      1.000      -0.240 au  H             0.71      1 S               4
                        (      -6.532 eV)               0.71      1 S               6
    37      39       --         0.088 au  H             0.71      2 S               4
                        (       2.394 eV)               0.71      2 S               6
    38      40       --         1.502 au  H             0.71      3 S               4
                        (      40.877 eV)               0.71      3 S               6
    39      41       --         0.406 au  H             0.71      1 P:x             4
                        (      11.052 eV)               0.71      1 P:x             6
    40      42       --         0.406 au  H             0.71      1 P:y             4
                        (      11.052 eV)               0.71      1 P:y             6
    41      43       --         0.406 au  H             0.71      1 P:z             4
                        (      11.052 eV)              -0.71      1 P:z             6
    42      44       --         2.570 au  H             0.71      1 D:z2            4
                        (      69.925 eV)               0.71      1 D:z2            6
    43      45       --         2.570 au  H             0.71      1 D:x2-y2         4
                        (      69.925 eV)               0.71      1 D:x2-y2         6
    44      46       --         2.570 au  H             0.71      1 D:xy            4
                        (      69.925 eV)               0.71      1 D:xy            6
    45      47       --         2.570 au  H             0.71      1 D:xz            4
                        (      69.925 eV)              -0.71      1 D:xz            6
    46      48       --         2.570 au  H             0.71      1 D:yz            4
                        (      69.925 eV)              -0.71      1 D:yz            6



                                       === AAA ===
 Nr. of SFOs :   46
 Cartesian basis functions that participate in this irrep (total number =   106) :
      1    30     2    31     3    32     4    33     7    36
     10    39    13    42     5     6    34    35     8     9
     37    38    11    12    40    41    19    48    16    18
     45    47    14    15    17    43    44    46    29    58
     25    28    54    57    22    24    27    51    53    56
     20    21    23    26    49    50    52    55    59    83
     60    84    61    85    64    88    62    63    86    87
     70    94    67    69    91    93    65    66    68    89
     90    92    71    95    72    96    73    97    76   100
     74    75    98    99    82   106    79    81   103   105
     77    78    80   101   102   104

    SFO  (index         Fragment          Generating    Expansion in Fragment Orbitals
  indx  incl.CFs)   Occup   Orb.Energy   FragmentType  Coeff.   Orbital     on Fragment
 --------------------------------------------------------------------------------------
     1       3      2.000      -0.501 au  C             0.71      1 S               1
                        (     -13.631 eV)              -0.71      1 S               2
     2       4       --         0.431 au  C             0.71      2 S               1
                        (      11.741 eV)              -0.71      2 S               2
     3       5       --         9.944 au  C             0.71      3 S               1
                        (     270.596 eV)              -0.71      3 S               2
     4       6      0.667      -0.193 au  C             0.71      1 P:x             1
                        (      -5.263 eV)              -0.71      1 P:x             2
     5       7       --         0.168 au  C             0.71      2 P:x             1
                        (       4.578 eV)              -0.71      2 P:x             2
     6       8       --         2.012 au  C             0.71      3 P:x             1
                        (      54.761 eV)              -0.71      3 P:x             2
     7       9      0.667      -0.193 au  C             0.71      1 P:y             1
                        (      -5.263 eV)              -0.71      1 P:y             2
     8      10       --         0.168 au  C             0.71      2 P:y             1
                        (       4.578 eV)              -0.71      2 P:y             2
     9      11       --         2.012 au  C             0.71      3 P:y             1
                        (      54.761 eV)              -0.71      3 P:y             2
    10      12      0.667      -0.193 au  C             0.71      1 P:z             1
                        (      -5.263 eV)               0.71      1 P:z             2
    11      13       --         0.168 au  C             0.71      2 P:z             1
                        (       4.578 eV)               0.71      2 P:z             2
    12      14       --         2.012 au  C             0.71      3 P:z             1
                        (      54.761 eV)               0.71      3 P:z             2
    13      15       --         1.242 au  C             0.71      1 D:z2            1
                        (      33.808 eV)              -0.71      1 D:z2            2
    14      16       --         1.242 au  C             0.71      1 D:x2-y2         1
                        (      33.808 eV)              -0.71      1 D:x2-y2         2
    15      17       --         1.242 au  C             0.71      1 D:xy            1
                        (      33.808 eV)              -0.71      1 D:xy            2
    16      18       --         1.242 au  C             0.71      1 D:xz            1
                        (      33.808 eV)               0.71      1 D:xz            2
    17      19       --         1.242 au  C             0.71      1 D:yz            1
                        (      33.808 eV)               0.71      1 D:yz            2
    18      20       --         4.016 au  C             0.71      1 F:z3            1
                        (     109.273 eV)               0.71      1 F:z3            2
    19      21       --         4.016 au  C             0.71      1 F:z             1
                        (     109.273 eV)               0.71      1 F:z             2
    20      22       --         4.016 au  C             0.71      1 F:xyz           1
                        (     109.273 eV)               0.71      1 F:xyz           2
    21      23       --         4.016 au  C             0.71      1 F:z2x           1
                        (     109.273 eV)              -0.71      1 F:z2x           2
    22      24       --         4.016 au  C             0.71      1 F:z2y           1
                        (     109.273 eV)              -0.71      1 F:z2y           2
    23      25       --         4.016 au  C             0.71      1 F:x             1
                        (     109.273 eV)              -0.71      1 F:x             2
    24      26       --         4.016 au  C             0.71      1 F:y             1
                        (     109.273 eV)              -0.71      1 F:y             2
    25      27      1.000      -0.240 au  H             0.71      1 S               3
                        (      -6.532 eV)              -0.71      1 S               5
    26      28       --         0.088 au  H             0.71      2 S               3
                        (       2.394 eV)              -0.71      2 S               5
    27      29       --         1.502 au  H             0.71      3 S               3
                        (      40.877 eV)              -0.71      3 S               5
    28      30       --         0.406 au  H             0.71      1 P:x             3
                        (      11.052 eV)              -0.71      1 P:x             5
    29      31       --         0.406 au  H             0.71      1 P:y             3
                        (      11.052 eV)              -0.71      1 P:y             5
    30      32       --         0.406 au  H             0.71      1 P:z             3
                        (      11.052 eV)               0.71      1 P:z             5
    31      33       --         2.570 au  H             0.71      1 D:z2            3
                        (      69.925 eV)              -0.71      1 D:z2            5
    32      34       --         2.570 au  H             0.71      1 D:x2-y2         3
                        (      69.925 eV)              -0.71      1 D:x2-y2         5
    33      35       --         2.570 au  H             0.71      1 D:xy            3
                        (      69.925 eV)              -0.71      1 D:xy            5
    34      36       --         2.570 au  H             0.71      1 D:xz            3
                        (      69.925 eV)               0.71      1 D:xz            5
    35      37       --         2.570 au  H             0.71      1 D:yz            3
                        (      69.925 eV)               0.71      1 D:yz            5
    36      38      1.000      -0.240 au  H             0.71      1 S               4
                        (      -6.532 eV)              -0.71      1 S               6
    37      39       --         0.088 au  H             0.71      2 S               4
                        (       2.394 eV)              -0.71      2 S               6
    38      40       --         1.502 au  H             0.71      3 S               4
                        (      40.877 eV)              -0.71      3 S               6
    39      41       --         0.406 au  H             0.71      1 P:x             4
                        (      11.052 eV)              -0.71      1 P:x             6
    40      42       --         0.406 au  H             0.71      1 P:y             4
                        (      11.052 eV)              -0.71      1 P:y             6
    41      43       --         0.406 au  H             0.71      1 P:z             4
                        (      11.052 eV)               0.71      1 P:z             6
    42      44       --         2.570 au  H             0.71      1 D:z2            4
                        (      69.925 eV)              -0.71      1 D:z2            6
    43      45       --         2.570 au  H             0.71      1 D:x2-y2         4
[...]
    6.H        -0.000000    0.927139   -1.233674
 <Jan26-2017> <17:07:00>  >>>> CORORT
 <Jan26-2017> <17:07:00>  >>>> CLSMAT
 <Jan26-2017> <17:07:00>  >>>> ORTHON
 <Jan26-2017> <17:07:00>  >>>> GENPT
 <Jan26-2017> <17:07:00>  Block Length= 128
 <Jan26-2017> <17:07:00>  >>>> PTBAS
 <Jan26-2017> <17:07:00>  >>>> CYCLE
 <Jan26-2017> <17:07:01>              |Error|         MaxErr       Wt(A-DIIS)
 <Jan26-2017> <17:07:01>      1      0.16712012      0.06918193
 <Jan26-2017> <17:07:01>      2      0.05558368      0.01509186    100.0
 <Jan26-2017> <17:07:01>      3      0.07742980      0.01919425    100.0
 <Jan26-2017> <17:07:02>      4      0.00677706      0.00227654      1.3
 <Jan26-2017> <17:07:02>      5      0.00115056      0.00027933      0.0
 <Jan26-2017> <17:07:03>      6      0.00001722      0.00000502      0.0
 <Jan26-2017> <17:07:03>      7      0.00000231      0.00000068      0.0
 <Jan26-2017> <17:07:03>  SCF converged
 <Jan26-2017> <17:07:04>      8      0.00000007      0.00000001      0.0
 <Jan26-2017> <17:07:04>  >>>> TOTEN
 <Jan26-2017> <17:07:04>  >>>> POPAN
 <Jan26-2017> <17:07:04>  >>>> DEBYE
 <Jan26-2017> <17:07:04>  >>>> ENGRAD
 <Jan26-2017> <17:07:05>  current energy                               -1.13420223 Hartree
 <Jan26-2017> <17:07:05>  energy change                      -1.13420223     0.00100000    F
 <Jan26-2017> <17:07:05>  constrained gradient max            0.00133785     0.00001000    F
 <Jan26-2017> <17:07:05>  constrained gradient rms            0.00061583     0.00000667    F
 <Jan26-2017> <17:07:05>  gradient max                        0.00931667
 <Jan26-2017> <17:07:05>  gradient rms                        0.00316935
 <Jan26-2017> <17:07:05>  cart. step max                      0.00202129     0.01000000    T
 <Jan26-2017> <17:07:05>  cart. step rms                      0.00099302     0.00666667    T
  Coordinates in Geometry Cycle 8 (LT #2)
    Atom         X           Y           Z   (Angstrom)
    1.C        -0.000000   -0.000000    0.664000
    2.C        -0.000000   -0.000000   -0.664000
    3.H        -0.000000   -0.926545    1.235695
    4.H        -0.000000    0.926545    1.235695
    5.H        -0.000000   -0.926545   -1.235695
    6.H        -0.000000    0.926545   -1.235695
 <Jan26-2017> <17:07:05>  >>>> CORORT
 <Jan26-2017> <17:07:05>  >>>> CLSMAT
 <Jan26-2017> <17:07:05>  >>>> ORTHON
 <Jan26-2017> <17:07:05>  >>>> GENPT
 <Jan26-2017> <17:07:05>  Block Length= 128
 <Jan26-2017> <17:07:05>  >>>> PTBAS
 <Jan26-2017> <17:07:05>  >>>> CYCLE
 <Jan26-2017> <17:07:06>              |Error|         MaxErr       Wt(A-DIIS)
 <Jan26-2017> <17:07:06>      1      0.00187726      0.00037944
 <Jan26-2017> <17:07:06>      2      0.00061653      0.00016784    100.0
 <Jan26-2017> <17:07:07>      3      0.00058462      0.00015321    100.0
 <Jan26-2017> <17:07:07>      4      0.00023213      0.00005962      0.0
 <Jan26-2017> <17:07:07>      5      0.00001469      0.00000358      0.0
 <Jan26-2017> <17:07:08>      6      0.00000023      0.00000004      0.0
 <Jan26-2017> <17:07:08>  SCF converged
 <Jan26-2017> <17:07:08>      7      0.00000003      0.00000001      0.0
 <Jan26-2017> <17:07:08>  >>>> TOTEN
 <Jan26-2017> <17:07:09>  >>>> POPAN
 <Jan26-2017> <17:07:09>  >>>> DEBYE
 <Jan26-2017> <17:07:09>  >>>> ENGRAD
 <Jan26-2017> <17:07:09>  current energy                               -1.13420967 Hartree
 <Jan26-2017> <17:07:09>  energy change                      -0.00000744     0.00100000    T
 <Jan26-2017> <17:07:09>  constrained gradient max            0.00055717     0.00001000    F
 <Jan26-2017> <17:07:09>  constrained gradient rms            0.00026267     0.00000667    F
 <Jan26-2017> <17:07:09>  gradient max                        0.01035692
 <Jan26-2017> <17:07:09>  gradient rms                        0.00346284
 <Jan26-2017> <17:07:09>  cart. step max                      0.00178770     0.01000000    T
 <Jan26-2017> <17:07:09>  cart. step rms                      0.00092469     0.00666667    T
  Coordinates in Geometry Cycle 9 (LT #2)
    Atom         X           Y           Z   (Angstrom)
    1.C        -0.000000    0.000000    0.664000
    2.C        -0.000000    0.000000   -0.664000
    3.H        -0.000000   -0.925738    1.237483
    4.H        -0.000000    0.925738    1.237483
    5.H        -0.000000   -0.925738   -1.237483
    6.H        -0.000000    0.925738   -1.237483
 <Jan26-2017> <17:07:10>  >>>> CORORT
 <Jan26-2017> <17:07:10>  >>>> CLSMAT
 <Jan26-2017> <17:07:10>  >>>> ORTHON
 <Jan26-2017> <17:07:10>  >>>> GENPT
 <Jan26-2017> <17:07:10>  Block Length= 128
 <Jan26-2017> <17:07:10>  >>>> PTBAS
 <Jan26-2017> <17:07:10>  >>>> CYCLE
 <Jan26-2017> <17:07:10>              |Error|         MaxErr       Wt(A-DIIS)
 <Jan26-2017> <17:07:10>      1      0.00168736      0.00031031
 <Jan26-2017> <17:07:11>      2      0.00056002      0.00015257    100.0
 <Jan26-2017> <17:07:11>      3      0.00034695      0.00011135    100.0
 <Jan26-2017> <17:07:12>      4      0.00029964      0.00007424      0.0
 <Jan26-2017> <17:07:12>      5      0.00001569      0.00000400      0.0
 <Jan26-2017> <17:07:13>      6      0.00000027      0.00000007      0.0
 <Jan26-2017> <17:07:13>  SCF converged
 <Jan26-2017> <17:07:13>      7      0.00000003      0.00000001      0.0
 <Jan26-2017> <17:07:13>  >>>> TOTEN
 <Jan26-2017> <17:07:14>  >>>> POPAN
 <Jan26-2017> <17:07:14>  >>>> DEBYE
 <Jan26-2017> <17:07:14>  >>>> ENGRAD
 <Jan26-2017> <17:07:14>  current energy                               -1.13421196 Hartree
 <Jan26-2017> <17:07:14>  energy change                      -0.00000228     0.00100000    T
 <Jan26-2017> <17:07:14>  constrained gradient max            0.00006548     0.00001000    F
 <Jan26-2017> <17:07:14>  constrained gradient rms            0.00003127     0.00000667    F
 <Jan26-2017> <17:07:14>  gradient max                        0.01104432
 <Jan26-2017> <17:07:14>  gradient rms                        0.00368158
 <Jan26-2017> <17:07:14>  cart. step max                      0.00007651     0.01000000    T
 <Jan26-2017> <17:07:14>  cart. step rms                      0.00003793     0.00666667    T
  Coordinates in Geometry Cycle 10 (LT #2)
    Atom         X           Y           Z   (Angstrom)
    1.C        -0.000000    0.000000    0.664000
    2.C        -0.000000    0.000000   -0.664000
    3.H        -0.000000   -0.925661    1.237508
    4.H        -0.000000    0.925661    1.237508
    5.H        -0.000000   -0.925661   -1.237508
    6.H        -0.000000    0.925661   -1.237508
 <Jan26-2017> <17:07:14>  >>>> CORORT
 <Jan26-2017> <17:07:14>  >>>> CLSMAT
 <Jan26-2017> <17:07:14>  >>>> ORTHON
 <Jan26-2017> <17:07:14>  >>>> GENPT
 <Jan26-2017> <17:07:14>  Block Length= 128
 <Jan26-2017> <17:07:14>  >>>> PTBAS
 <Jan26-2017> <17:07:14>  >>>> CYCLE
 <Jan26-2017> <17:07:15>              |Error|         MaxErr       Wt(A-DIIS)
 <Jan26-2017> <17:07:15>      1      0.00009250      0.00001386
 <Jan26-2017> <17:07:16>      2      0.00004372      0.00001074    100.0
 <Jan26-2017> <17:07:16>      3      0.00002563      0.00000572    100.0
 <Jan26-2017> <17:07:17>      4      0.00002844      0.00000733      0.0
 <Jan26-2017> <17:07:17>      5      0.00000104      0.00000029      0.0
 <Jan26-2017> <17:07:17>  SCF converged
 <Jan26-2017> <17:07:17>      6      0.00000005      0.00000001      0.0
 <Jan26-2017> <17:07:18>  >>>> TOTEN
 <Jan26-2017> <17:07:18>  >>>> POPAN
 <Jan26-2017> <17:07:18>  >>>> DEBYE
 <Jan26-2017> <17:07:18>  >>>> ENGRAD
 <Jan26-2017> <17:07:19>  current energy                               -1.13421203 Hartree
 <Jan26-2017> <17:07:19>  energy change                      -0.00000008     0.00100000    T
 <Jan26-2017> <17:07:19>  constrained gradient max            0.00000078     0.00001000    T
 <Jan26-2017> <17:07:19>  constrained gradient rms            0.00000039     0.00000667    T
 <Jan26-2017> <17:07:19>  gradient max                        0.01099969
 <Jan26-2017> <17:07:19>  gradient rms                        0.00366656
 <Jan26-2017> <17:07:19>  cart. step max                      0.00000078     0.01000000    T
 <Jan26-2017> <17:07:19>  cart. step rms                      0.00000037     0.00666667    T
 <Jan26-2017> <17:07:19>  GEOMETRY CONVERGED
 <Jan26-2017> <17:07:19>  Calculating Energy Terms for Final Geometry
  Coordinates in Geometry Cycle 10 (LT #2)
    Atom         X           Y           Z   (Angstrom)
    1.C        -0.000000    0.000000    0.664000
    2.C        -0.000000    0.000000   -0.664000
    3.H        -0.000000   -0.925661    1.237508
    4.H        -0.000000    0.925661    1.237508
    5.H        -0.000000   -0.925661   -1.237508
    6.H        -0.000000    0.925661   -1.237508
 <Jan26-2017> <17:07:19>  >>>> CORORT
 <Jan26-2017> <17:07:19>  >>>> CLSMAT
 <Jan26-2017> <17:07:19>  >>>> ORTHON
 <Jan26-2017> <17:07:19>  >>>> GENPT
 <Jan26-2017> <17:07:19>  Block Length= 128
 <Jan26-2017> <17:07:19>  >>>> PTBAS
 <Jan26-2017> <17:07:19>  >>>> CYCLE
 <Jan26-2017> <17:07:20>              |Error|         MaxErr       Wt(A-DIIS)
 <Jan26-2017> <17:07:20>      1      0.00000000      0.00000000
 <Jan26-2017> <17:07:20>      2      0.00000000      0.00000000    100.0
 <Jan26-2017> <17:07:20>  SCF converged
 <Jan26-2017> <17:07:20>      3      0.00000000      0.00000000    100.0
 <Jan26-2017> <17:07:21>  >>>> TOTEN
 <Jan26-2017> <17:07:22>  >>>> POPAN
 <Jan26-2017> <17:07:22>  >>>> DEBYE
 <Jan26-2017> <17:07:22>  >>>> AMETS
 <Jan26-2017> <17:07:22>  >>>> POPUL
 <Jan26-2017> <17:07:22>   Bond Energy          -1.13421203 a.u.
 <Jan26-2017> <17:07:22>   Bond Energy         -30.86347972 eV
 <Jan26-2017> <17:07:22>   Bond Energy        -711.73       kcal/mol
 <Jan26-2017> <17:07:22>  Bond Energy at LINEAR TRANSIT point:   2 =  -1.134212
 <Jan26-2017> <17:07:22>
  Coordinates in Geometry Cycle 11 (LT #3)
    Atom         X           Y           Z   (Angstrom)
    1.C         0.000003   -0.000000    0.736500
    2.C         0.000003   -0.000000   -0.736500
    3.H         0.000003   -0.938378    1.280428
    4.H         0.000003    0.938379    1.280427
    5.H         0.000003   -0.938378   -1.280428
    6.H         0.000003    0.938379   -1.280427
 <Jan26-2017> <17:07:22>  >>>> CORORT
 <Jan26-2017> <17:07:22>  >>>> CLSMAT
 <Jan26-2017> <17:07:22>  >>>> ORTHON
 <Jan26-2017> <17:07:22>  >>>> GENPT
 <Jan26-2017> <17:07:22>  Block Length= 128
 <Jan26-2017> <17:07:22>  >>>> PTBAS
 <Jan26-2017> <17:07:22>  >>>> CYCLE
 <Jan26-2017> <17:07:23>              |Error|         MaxErr       Wt(A-DIIS)
 <Jan26-2017> <17:07:23>      1      0.13451898      0.05583342
 <Jan26-2017> <17:07:23>      2      0.09352783      0.02313530    100.0
 <Jan26-2017> <17:07:24>      3      0.13401462      0.03490355    100.0
 <Jan26-2017> <17:07:24>      4      0.01633882      0.00467717      3.7
 <Jan26-2017> <17:07:25>      5      0.00070166      0.00020409      0.0
 <Jan26-2017> <17:07:25>      6      0.00000780      0.00000224      0.0
 <Jan26-2017> <17:07:25>      7      0.00000145      0.00000040      0.0
 <Jan26-2017> <17:07:26>  SCF converged
 <Jan26-2017> <17:07:26>      8      0.00000005      0.00000001      0.0
 <Jan26-2017> <17:07:26>  >>>> TOTEN
 <Jan26-2017> <17:07:27>  >>>> POPAN
 <Jan26-2017> <17:07:27>  >>>> DEBYE
 <Jan26-2017> <17:07:27>  >>>> ENGRAD
 <Jan26-2017> <17:07:27>  current energy                               -1.11871226 Hartree
 <Jan26-2017> <17:07:27>  energy change                      -1.11871226     0.00100000    F
 <Jan26-2017> <17:07:27>  constrained gradient max            0.00117294     0.00001000    F
 <Jan26-2017> <17:07:27>  constrained gradient rms            0.00059296     0.00000667    F
 <Jan26-2017> <17:07:27>  gradient max                        0.19664114
 <Jan26-2017> <17:07:27>  gradient rms                        0.06554988
 <Jan26-2017> <17:07:27>  cart. step max                      0.00160104     0.01000000    T
 <Jan26-2017> <17:07:27>  cart. step rms                      0.00075555     0.00666667    T
  Coordinates in Geometry Cycle 12 (LT #3)
    Atom         X           Y           Z   (Angstrom)
    1.C         0.000003   -0.000000    0.736500
    2.C         0.000003   -0.000000   -0.736500
    3.H         0.000003   -0.938302    1.282029
    4.H         0.000003    0.938302    1.282028
    5.H         0.000003   -0.938302   -1.282029
    6.H         0.000003    0.938302   -1.282028
 <Jan26-2017> <17:07:27>  >>>> CORORT
 <Jan26-2017> <17:07:27>  >>>> CLSMAT
 <Jan26-2017> <17:07:27>  >>>> ORTHON
 <Jan26-2017> <17:07:27>  >>>> GENPT
 <Jan26-2017> <17:07:27>  Block Length= 128
 <Jan26-2017> <17:07:27>  >>>> PTBAS
 <Jan26-2017> <17:07:27>  >>>> CYCLE
 <Jan26-2017> <17:07:28>              |Error|         MaxErr       Wt(A-DIIS)
 <Jan26-2017> <17:07:28>      1      0.00155890      0.00030781
 <Jan26-2017> <17:07:29>      2      0.00049617      0.00010903    100.0
 <Jan26-2017> <17:07:29>      3      0.00065360      0.00016345    100.0
 <Jan26-2017> <17:07:29>      4      0.00004886      0.00001316      0.0
 <Jan26-2017> <17:07:30>      5      0.00001058      0.00000252      0.0
 <Jan26-2017> <17:07:30>      6      0.00000038      0.00000007      0.0
 <Jan26-2017> <17:07:30>  SCF converged
 <Jan26-2017> <17:07:31>      7      0.00000002      0.00000000      0.0
 <Jan26-2017> <17:07:31>  >>>> TOTEN
 <Jan26-2017> <17:07:31>  >>>> POPAN
 <Jan26-2017> <17:07:31>  >>>> DEBYE
 <Jan26-2017> <17:07:31>  >>>> ENGRAD
 <Jan26-2017> <17:07:32>  current energy                               -1.11871684 Hartree
 <Jan26-2017> <17:07:32>  energy change                      -0.00000458     0.00100000    T
 <Jan26-2017> <17:07:32>  constrained gradient max            0.00043203     0.00001000    F
 <Jan26-2017> <17:07:32>  constrained gradient rms            0.00019924     0.00000667    F
 <Jan26-2017> <17:07:32>  gradient max                        0.19549269
 <Jan26-2017> <17:07:32>  gradient rms                        0.06516455
 <Jan26-2017> <17:07:32>  cart. step max                      0.00129005     0.01000000    T
 <Jan26-2017> <17:07:32>  cart. step rms                      0.00064345     0.00666667    T
  Coordinates in Geometry Cycle 13 (LT #3)
    Atom         X           Y           Z   (Angstrom)
    1.C         0.000002   -0.000000    0.736500
    2.C         0.000002   -0.000000   -0.736500
    3.H         0.000002   -0.937855    1.283319
    4.H         0.000002    0.937855    1.283318
    5.H         0.000002   -0.937855   -1.283319
    6.H         0.000002    0.937855   -1.283318
 <Jan26-2017> <17:07:32>  >>>> CORORT
 <Jan26-2017> <17:07:32>  >>>> CLSMAT
 <Jan26-2017> <17:07:32>  >>>> ORTHON
 <Jan26-2017> <17:07:32>  >>>> GENPT
 <Jan26-2017> <17:07:32>  Block Length= 128
 <Jan26-2017> <17:07:32>  >>>> PTBAS
 <Jan26-2017> <17:07:32>  >>>> CYCLE
 <Jan26-2017> <17:07:33>              |Error|         MaxErr       Wt(A-DIIS)
 <Jan26-2017> <17:07:33>      1      0.00117682      0.00021281
 <Jan26-2017> <17:07:33>      2      0.00035118      0.00009448    100.0
 <Jan26-2017> <17:07:34>      3      0.00024046      0.00007574    100.0
 <Jan26-2017> <17:07:34>      4      0.00017601      0.00004326      0.0
 <Jan26-2017> <17:07:35>      5      0.00001029      0.00000266      0.0
 <Jan26-2017> <17:07:35>      6      0.00000016      0.00000003      0.0
 <Jan26-2017> <17:07:35>  SCF converged
 <Jan26-2017> <17:07:35>      7      0.00000002      0.00000001      0.0
 <Jan26-2017> <17:07:36>  >>>> TOTEN
 <Jan26-2017> <17:07:36>  >>>> POPAN
 <Jan26-2017> <17:07:36>  >>>> DEBYE
 <Jan26-2017> <17:07:36>  >>>> ENGRAD
 <Jan26-2017> <17:07:37>  current energy                               -1.11871807 Hartree
 <Jan26-2017> <17:07:37>  energy change                      -0.00000124     0.00100000    T
 <Jan26-2017> <17:07:37>  constrained gradient max            0.00012146     0.00001000    F
 <Jan26-2017> <17:07:37>  constrained gradient rms            0.00005579     0.00000667    F
 <Jan26-2017> <17:07:37>  gradient max                        0.19489958
 <Jan26-2017> <17:07:37>  gradient rms                        0.06496655
 <Jan26-2017> <17:07:37>  cart. step max                      0.00017224     0.01000000    T
 <Jan26-2017> <17:07:37>  cart. step rms                      0.00010389     0.00666667    T
  Coordinates in Geometry Cycle 14 (LT #3)
    Atom         X           Y           Z   (Angstrom)
    1.C         0.000003   -0.000000    0.736500
    2.C         0.000003   -0.000000   -0.736500
    3.H         0.000003   -0.937683    1.283456
    4.H         0.000003    0.937683    1.283456
    5.H         0.000003   -0.937683   -1.283456
    6.H         0.000003    0.937683   -1.283456
 <Jan26-2017> <17:07:37>  >>>> CORORT
 <Jan26-2017> <17:07:37>  >>>> CLSMAT
 <Jan26-2017> <17:07:37>  >>>> ORTHON
 <Jan26-2017> <17:07:37>  >>>> GENPT
 <Jan26-2017> <17:07:37>  Block Length= 128
 <Jan26-2017> <17:07:37>  >>>> PTBAS
 <Jan26-2017> <17:07:37>  >>>> CYCLE
 <Jan26-2017> <17:07:38>              |Error|         MaxErr       Wt(A-DIIS)
 <Jan26-2017> <17:07:38>      1      0.00021152      0.00004161
 <Jan26-2017> <17:07:38>      2      0.00009470      0.00002086    100.0
 <Jan26-2017> <17:07:38>      3      0.00005952      0.00001150    100.0
 <Jan26-2017> <17:07:39>      4      0.00005347      0.00001357      0.0
 <Jan26-2017> <17:07:39>      5      0.00000334      0.00000078      0.0
 <Jan26-2017> <17:07:40>  SCF converged
 <Jan26-2017> <17:07:40>      6      0.00000012      0.00000004      0.0
 <Jan26-2017> <17:07:40>  >>>> TOTEN
 <Jan26-2017> <17:07:40>  >>>> POPAN
 <Jan26-2017> <17:07:40>  >>>> DEBYE
 <Jan26-2017> <17:07:41>  >>>> ENGRAD
 <Jan26-2017> <17:07:41>  current energy                               -1.11871823 Hartree
 <Jan26-2017> <17:07:41>  energy change                      -0.00000016     0.00100000    T
 <Jan26-2017> <17:07:41>  constrained gradient max            0.00000242     0.00001000    T
 <Jan26-2017> <17:07:41>  constrained gradient rms            0.00000117     0.00000667    T
 <Jan26-2017> <17:07:41>  gradient max                        0.19494429
 <Jan26-2017> <17:07:41>  gradient rms                        0.06498143
 <Jan26-2017> <17:07:41>  cart. step max                      0.00000257     0.01000000    T
 <Jan26-2017> <17:07:41>  cart. step rms                      0.00000123     0.00666667    T
 <Jan26-2017> <17:07:41>  GEOMETRY CONVERGED
 <Jan26-2017> <17:07:41>  Calculating Energy Terms for Final Geometry
  Coordinates in Geometry Cycle 14 (LT #3)
    Atom         X           Y           Z   (Angstrom)
    1.C         0.000003   -0.000000    0.736500
    2.C         0.000003   -0.000000   -0.736500
    3.H         0.000003   -0.937683    1.283456
    4.H         0.000003    0.937683    1.283456
    5.H         0.000003   -0.937683   -1.283456
    6.H         0.000003    0.937683   -1.283456
 <Jan26-2017> <17:07:41>  >>>> CORORT
 <Jan26-2017> <17:07:41>  >>>> CLSMAT
 <Jan26-2017> <17:07:41>  >>>> ORTHON
 <Jan26-2017> <17:07:41>  >>>> GENPT
 <Jan26-2017> <17:07:41>  Block Length= 128
 <Jan26-2017> <17:07:41>  >>>> PTBAS
 <Jan26-2017> <17:07:41>  >>>> CYCLE
 <Jan26-2017> <17:07:42>              |Error|         MaxErr       Wt(A-DIIS)
 <Jan26-2017> <17:07:42>      1      0.00000000      0.00000000
 <Jan26-2017> <17:07:42>      2      0.00000000      0.00000000    100.0
 <Jan26-2017> <17:07:43>  SCF converged
 <Jan26-2017> <17:07:43>      3      0.00000000      0.00000000    100.0
 <Jan26-2017> <17:07:43>  >>>> TOTEN
 <Jan26-2017> <17:07:44>  >>>> POPAN
 <Jan26-2017> <17:07:44>  >>>> DEBYE
 <Jan26-2017> <17:07:44>  >>>> AMETS
 <Jan26-2017> <17:07:44>  >>>> POPUL
 <Jan26-2017> <17:07:44>   Bond Energy          -1.11871823 a.u.
 <Jan26-2017> <17:07:44>   Bond Energy         -30.44187194 eV
 <Jan26-2017> <17:07:44>   Bond Energy        -702.01       kcal/mol
 <Jan26-2017> <17:07:44>  Bond Energy at LINEAR TRANSIT point:   3 =  -1.118718
 <Jan26-2017> <17:07:44>
 <Jan26-2017> <17:07:44>  NORMAL TERMINATION
 <Jan26-2017> <17:07:44>  END
