 Entering Gaussian System, Link 0=/u/local/apps/gaussian/09d01/g09/g09
 Input=/u/home/w/wittig/Bickel/Alkenes/Butadiene/Ethylene.com
 Output=/u/home/w/wittig/Bickel/Alkenes/Butadiene/Ethylene.log
 Initial command:
 /u/local/apps/gaussian/09d01/g09/l1.exe "/work/1952437.1.c2_smp.q/Gau-9454.inp" -scrdir="/work/1952437.1.c2_smp.q/"
 Entering Link 1 = /u/local/apps/gaussian/09d01/g09/l1.exe PID=      9455.
  
 Copyright (c) 1988,1990,1992,1993,1995,1998,2003,2009,2013,
            Gaussian, Inc.  All Rights Reserved.
  
 This is part of the Gaussian(R) 09 program.  It is based on
 the Gaussian(R) 03 system (copyright 2003, Gaussian, Inc.),
 the Gaussian(R) 98 system (copyright 1998, Gaussian, Inc.),
 the Gaussian(R) 94 system (copyright 1995, Gaussian, Inc.),
 the Gaussian 92(TM) system (copyright 1992, Gaussian, Inc.),
 the Gaussian 90(TM) system (copyright 1990, Gaussian, Inc.),
 the Gaussian 88(TM) system (copyright 1988, Gaussian, Inc.),
 the Gaussian 86(TM) system (copyright 1986, Carnegie Mellon
 University), and the Gaussian 82(TM) system (copyright 1983,
 Carnegie Mellon University). Gaussian is a federally registered
 trademark of Gaussian, Inc.
  
 This software contains proprietary and confidential information,
 including trade secrets, belonging to Gaussian, Inc.
  
 This software is provided under written license and may be
 used, copied, transmitted, or stored only in accord with that
 written license.
  
 The following legend is applicable only to US Government
 contracts under FAR:
  
                    RESTRICTED RIGHTS LEGEND
  
 Use, reproduction and disclosure by the US Government is
 subject to restrictions as set forth in subparagraphs (a)
 and (c) of the Commercial Computer Software - Restricted
 Rights clause in FAR 52.227-19.
  
 Gaussian, Inc.
 340 Quinnipiac St., Bldg. 40, Wallingford CT 06492
  
  
 ---------------------------------------------------------------
 Warning -- This program may not be used in any manner that
 competes with the business of Gaussian, Inc. or will provide
 assistance to any competitor of Gaussian, Inc.  The licensee
 of this program is prohibited from giving any competitor of
 Gaussian, Inc. access to this program.  By using this program,
 the user acknowledges that Gaussian, Inc. is engaged in the
 business of creating and licensing software in the field of
 computational chemistry and represents and warrants to the
 licensee that it is not a competitor of Gaussian, Inc. and that
 it will not use this program in any manner prohibited above.
 ---------------------------------------------------------------
  

 Cite this work as:
 Gaussian 09, Revision D.01,
 M. J. Frisch, G. W. Trucks, H. B. Schlegel, G. E. Scuseria, 
 M. A. Robb, J. R. Cheeseman, G. Scalmani, V. Barone, B. Mennucci, 
 G. A. Petersson, H. Nakatsuji, M. Caricato, X. Li, H. P. Hratchian, 
 A. F. Izmaylov, J. Bloino, G. Zheng, J. L. Sonnenberg, M. Hada, 
 M. Ehara, K. Toyota, R. Fukuda, J. Hasegawa, M. Ishida, T. Nakajima, 
 Y. Honda, O. Kitao, H. Nakai, T. Vreven, J. A. Montgomery, Jr., 
 J. E. Peralta, F. Ogliaro, M. Bearpark, J. J. Heyd, E. Brothers, 
 K. N. Kudin, V. N. Staroverov, T. Keith, R. Kobayashi, J. Normand, 
 K. Raghavachari, A. Rendell, J. C. Burant, S. S. Iyengar, J. Tomasi, 
 M. Cossi, N. Rega, J. M. Millam, M. Klene, J. E. Knox, J. B. Cross, 
 V. Bakken, C. Adamo, J. Jaramillo, R. Gomperts, R. E. Stratmann, 
 O. Yazyev, A. J. Austin, R. Cammi, C. Pomelli, J. W. Ochterski, 
 R. L. Martin, K. Morokuma, V. G. Zakrzewski, G. A. Voth, 
 P. Salvador, J. J. Dannenberg, S. Dapprich, A. D. Daniels, 
 O. Farkas, J. B. Foresman, J. V. Ortiz, J. Cioslowski, 
 and D. J. Fox, Gaussian, Inc., Wallingford CT, 2013.
 
 ******************************************
 Gaussian 09:  EM64L-G09RevD.01 24-Apr-2013
                23-Mar-2017 
 ******************************************
 Default route:  MaxDisk=121GB
 ----------------------------------------------------------------------
 # opt=(calcfc,ts,noeigen) freq=noraman 6-31+g(d) geom=connectivity m06
 2x
 ----------------------------------------------------------------------
 1/5=1,10=4,11=1,14=-1,18=20,26=3,38=1,57=2/1,3;
 2/9=110,12=2,17=6,18=5,40=1/2;
 3/5=1,6=6,7=11,11=2,16=1,25=1,30=1,71=2,74=-55,140=1/1,2,3;
 4//1;
 5/5=2,38=5/2;
 8/6=4,10=90,11=11/1;
 11/6=1,8=1,9=11,15=111,16=1/1,2,10;
 10/6=1,13=1/2;
 6/7=2,8=2,9=2,10=2,28=1/1;
 7/10=1,18=20,25=1/1,2,3,16;
 1/5=1,10=4,11=1,14=-1,18=20,26=3/3(2);
 2/9=110/2;
 99//99;
 2/9=110/2;
 3/5=1,6=6,7=11,11=2,16=1,25=1,30=1,71=1,74=-55/1,2,3;
 4/5=5,16=3,69=1/1;
 5/5=2,38=5/2;
 7//1,2,3,16;
 1/5=1,11=1,14=-1,18=20,26=3/3(-5);
 2/9=110/2;
 6/7=2,8=2,9=2,10=2,19=2,28=1/1;
 99/9=1/99;
 -------------------
 Title Card Required
 -------------------
 Symbolic Z-matrix:
 Charge =  0 Multiplicity = 1
 C                     0.68215   1.29784   0.05919 
 H                     0.73333   2.36341   0.14192 
 C                     1.56454   0.87103  -0.87469 
 H                     2.1012    1.48356  -1.56874 
 C                     0.87903  -0.88113   0.29437 
 H                     1.11663  -1.87871   0.59978 
 C                     1.68953  -0.51221  -0.7254 
 H                     2.33941  -1.15275  -1.2842 
 C                    -1.44158   0.67143  -0.59276 
 C                    -1.30923  -0.79339  -0.43466 
 H                    -1.63175   0.93838  -1.61132 
 H                    -1.42956  -1.29926  -1.36981 
 H                     1.01062  -0.21166   1.11862 
 H                     0.9145    0.85217   1.0038 
 H                    -2.1852    1.06938   0.0657 
 H                    -1.98302  -1.16827   0.30721 
 

 GradGradGradGradGradGradGradGradGradGradGradGradGradGradGradGradGradGrad
 Berny optimization.
 Initialization pass.
                           ----------------------------
                           !    Initial Parameters    !
                           ! (Angstroms and Degrees)  !
 --------------------------                            --------------------------
 ! Name  Definition              Value          Derivative Info.                !
 --------------------------------------------------------------------------------
 ! R1    R(1,2)                  1.07           calculate D2E/DX2 analytically  !
 ! R2    R(1,3)                  1.3539         calculate D2E/DX2 analytically  !
 ! R3    R(1,9)                  2.3082         calculate D2E/DX2 analytically  !
 ! R4    R(1,14)                 1.07           calculate D2E/DX2 analytically  !
 ! R5    R(3,4)                  1.07           calculate D2E/DX2 analytically  !
 ! R6    R(3,7)                  1.3969         calculate D2E/DX2 analytically  !
 ! R7    R(5,6)                  1.07           calculate D2E/DX2 analytically  !
 ! R8    R(5,7)                  1.3539         calculate D2E/DX2 analytically  !
 ! R9    R(5,10)                 2.3082         calculate D2E/DX2 analytically  !
 ! R10   R(5,13)                 1.07           calculate D2E/DX2 analytically  !
 ! R11   R(7,8)                  1.07           calculate D2E/DX2 analytically  !
 ! R12   R(9,10)                 1.4793         calculate D2E/DX2 analytically  !
 ! R13   R(9,11)                 1.07           calculate D2E/DX2 analytically  !
 ! R14   R(9,15)                 1.07           calculate D2E/DX2 analytically  !
 ! R15   R(10,12)                1.07           calculate D2E/DX2 analytically  !
 ! R16   R(10,16)                1.07           calculate D2E/DX2 analytically  !
 ! A1    A(2,1,3)              109.6402         calculate D2E/DX2 analytically  !
 ! A2    A(2,1,9)              109.6402         calculate D2E/DX2 analytically  !
 ! A3    A(2,1,14)             109.6424         calculate D2E/DX2 analytically  !
 ! A4    A(3,1,9)              108.6202         calculate D2E/DX2 analytically  !
 ! A5    A(3,1,14)             109.6402         calculate D2E/DX2 analytically  !
 ! A6    A(9,1,14)             109.6402         calculate D2E/DX2 analytically  !
 ! A7    A(1,3,4)              126.4304         calculate D2E/DX2 analytically  !
 ! A8    A(1,3,7)              107.264          calculate D2E/DX2 analytically  !
 ! A9    A(4,3,7)              126.2509         calculate D2E/DX2 analytically  !
 ! A10   A(6,5,7)              109.6402         calculate D2E/DX2 analytically  !
 ! A11   A(6,5,10)             109.6402         calculate D2E/DX2 analytically  !
 ! A12   A(6,5,13)             109.6424         calculate D2E/DX2 analytically  !
 ! A13   A(7,5,10)             108.6202         calculate D2E/DX2 analytically  !
 ! A14   A(7,5,13)             109.6402         calculate D2E/DX2 analytically  !
 ! A15   A(10,5,13)            109.6402         calculate D2E/DX2 analytically  !
 ! A16   A(3,7,5)              107.264          calculate D2E/DX2 analytically  !
 ! A17   A(3,7,8)              126.2509         calculate D2E/DX2 analytically  !
 ! A18   A(5,7,8)              126.4304         calculate D2E/DX2 analytically  !
 ! A19   A(1,9,10)              98.9879         calculate D2E/DX2 analytically  !
 ! A20   A(1,9,11)             111.3886         calculate D2E/DX2 analytically  !
 ! A21   A(1,9,15)             111.3886         calculate D2E/DX2 analytically  !
 ! A22   A(10,9,11)            111.3886         calculate D2E/DX2 analytically  !
 ! A23   A(10,9,15)            111.3886         calculate D2E/DX2 analytically  !
 ! A24   A(11,9,15)            111.6848         calculate D2E/DX2 analytically  !
 ! A25   A(5,10,9)              98.9879         calculate D2E/DX2 analytically  !
 ! A26   A(5,10,12)            111.3886         calculate D2E/DX2 analytically  !
 ! A27   A(5,10,16)            111.3886         calculate D2E/DX2 analytically  !
 ! A28   A(9,10,12)            111.3886         calculate D2E/DX2 analytically  !
 ! A29   A(9,10,16)            111.3886         calculate D2E/DX2 analytically  !
 ! A30   A(12,10,16)           111.6848         calculate D2E/DX2 analytically  !
 ! D1    D(2,1,3,4)            -11.1259         calculate D2E/DX2 analytically  !
 ! D2    D(2,1,3,7)            166.3112         calculate D2E/DX2 analytically  !
 ! D3    D(9,1,3,4)            108.6646         calculate D2E/DX2 analytically  !
 ! D4    D(9,1,3,7)            -73.8983         calculate D2E/DX2 analytically  !
 ! D5    D(14,1,3,4)          -131.5449         calculate D2E/DX2 analytically  !
 ! D6    D(14,1,3,7)            45.8922         calculate D2E/DX2 analytically  !
 ! D7    D(2,1,9,10)          -171.9469         calculate D2E/DX2 analytically  !
 ! D8    D(2,1,9,11)            70.7638         calculate D2E/DX2 analytically  !
 ! D9    D(2,1,9,15)           -54.6575         calculate D2E/DX2 analytically  !
 ! D10   D(3,1,9,10)            68.2627         calculate D2E/DX2 analytically  !
 ! D11   D(3,1,9,11)           -49.0267         calculate D2E/DX2 analytically  !
 ! D12   D(3,1,9,15)          -174.448          calculate D2E/DX2 analytically  !
 ! D13   D(14,1,9,10)          -51.5278         calculate D2E/DX2 analytically  !
 ! D14   D(14,1,9,11)         -168.8172         calculate D2E/DX2 analytically  !
 ! D15   D(14,1,9,15)           65.7615         calculate D2E/DX2 analytically  !
 ! D16   D(1,3,7,5)              0.0            calculate D2E/DX2 analytically  !
 ! D17   D(1,3,7,8)           -177.443          calculate D2E/DX2 analytically  !
 ! D18   D(4,3,7,5)            177.443          calculate D2E/DX2 analytically  !
 ! D19   D(4,3,7,8)              0.0            calculate D2E/DX2 analytically  !
 ! D20   D(6,5,7,3)           -166.3112         calculate D2E/DX2 analytically  !
 ! D21   D(6,5,7,8)             11.1259         calculate D2E/DX2 analytically  !
 ! D22   D(10,5,7,3)            73.8983         calculate D2E/DX2 analytically  !
 ! D23   D(10,5,7,8)          -108.6646         calculate D2E/DX2 analytically  !
 ! D24   D(13,5,7,3)           -45.8922         calculate D2E/DX2 analytically  !
 ! D25   D(13,5,7,8)           131.5449         calculate D2E/DX2 analytically  !
 ! D26   D(6,5,10,9)           171.9469         calculate D2E/DX2 analytically  !
 ! D27   D(6,5,10,12)          -70.7638         calculate D2E/DX2 analytically  !
 ! D28   D(6,5,10,16)           54.6575         calculate D2E/DX2 analytically  !
 ! D29   D(7,5,10,9)           -68.2627         calculate D2E/DX2 analytically  !
 ! D30   D(7,5,10,12)           49.0267         calculate D2E/DX2 analytically  !
 ! D31   D(7,5,10,16)          174.448          calculate D2E/DX2 analytically  !
 ! D32   D(13,5,10,9)           51.5278         calculate D2E/DX2 analytically  !
 ! D33   D(13,5,10,12)         168.8172         calculate D2E/DX2 analytically  !
 ! D34   D(13,5,10,16)         -65.7615         calculate D2E/DX2 analytically  !
 ! D35   D(1,9,10,5)             0.0            calculate D2E/DX2 analytically  !
 ! D36   D(1,9,10,12)         -117.2893         calculate D2E/DX2 analytically  !
 ! D37   D(1,9,10,16)          117.2893         calculate D2E/DX2 analytically  !
 ! D38   D(11,9,10,5)          117.2893         calculate D2E/DX2 analytically  !
 ! D39   D(11,9,10,12)           0.0            calculate D2E/DX2 analytically  !
 ! D40   D(11,9,10,16)        -125.4213         calculate D2E/DX2 analytically  !
 ! D41   D(15,9,10,5)         -117.2893         calculate D2E/DX2 analytically  !
 ! D42   D(15,9,10,12)         125.4213         calculate D2E/DX2 analytically  !
 ! D43   D(15,9,10,16)           0.0            calculate D2E/DX2 analytically  !
 --------------------------------------------------------------------------------
 Trust Radius=3.00D-01 FncErr=1.00D-07 GrdErr=1.00D-06
 Number of steps in this run=     99 maximum allowed number of steps=    100.
 Search for a saddle point of order  1.
 GradGradGradGradGradGradGradGradGradGradGradGradGradGradGradGradGradGrad

                          Input orientation:                          
 ---------------------------------------------------------------------
 Center     Atomic      Atomic             Coordinates (Angstroms)
 Number     Number       Type             X           Y           Z
 ---------------------------------------------------------------------
      1          6           0        0.682146    1.297842    0.059188
      2          1           0        0.733326    2.363410    0.141920
      3          6           0        1.564543    0.871026   -0.874692
      4          1           0        2.101201    1.483560   -1.568738
      5          6           0        0.879030   -0.881133    0.294367
      6          1           0        1.116630   -1.878715    0.599777
      7          6           0        1.689527   -0.512211   -0.725397
      8          1           0        2.339409   -1.152755   -1.284197
      9          6           0       -1.441582    0.671433   -0.592760
     10          6           0       -1.309226   -0.793390   -0.434660
     11          1           0       -1.631748    0.938382   -1.611325
     12          1           0       -1.429563   -1.299262   -1.369814
     13          1           0        1.010621   -0.211658    1.118616
     14          1           0        0.914498    0.852166    1.003796
     15          1           0       -2.185203    1.069376    0.065699
     16          1           0       -1.983018   -1.168267    0.307210
 ---------------------------------------------------------------------
                    Distance matrix (angstroms):
                    1          2          3          4          5
     1  C    0.000000
     2  H    1.070000   0.000000
     3  C    1.353856   1.987871   0.000000
     4  H    2.167568   2.360417   1.070000   0.000000
     5  C    2.200455   3.251388   2.215104   3.249097   0.000000
     6  H    3.251388   4.283945   3.152104   4.120283   1.070000
     7  C    2.215103   3.152104   1.396873   2.205403   1.353856
     8  H    3.249097   4.120283   2.205403   2.662304   2.167568
     9  C    2.308169   2.851801   3.025906   3.763428   2.929623
    10  C    2.929623   3.803925   3.349993   4.254602   2.308169
    11  H    2.876444   3.270803   3.280769   3.772790   3.639547
    12  H    3.639547   4.514265   3.730946   4.499995   2.876444
    13  H    1.873199   2.767996   2.335018   3.359315   1.070000
    14  H    1.070000   1.749146   1.987871   2.902560   1.873199
    15  H    2.876444   3.193454   3.870953   4.606104   3.639547
    16  H    3.639547   4.458541   4.259201   5.218449   2.876444
                    6          7          8          9         10
     6  H    0.000000
     7  C    1.987871   0.000000
     8  H    2.360417   1.070000   0.000000
     9  C    3.803925   3.349993   4.254602   0.000000
    10  C    2.851801   3.025906   3.763428   1.479262   0.000000
    11  H    4.514265   3.730946   4.499995   1.070000   2.118394
    12  H    3.270803   3.280769   3.772790   2.118394   1.070000
    13  H    1.749146   1.987871   2.902560   3.118005   2.851801
    14  H    2.767996   2.335018   3.359315   2.851801   3.118005
    15  H    4.458541   4.259201   5.218449   1.070000   2.118394
    16  H    3.193454   3.870953   4.606104   2.118394   1.070000
                   11         12         13         14         15
    11  H    0.000000
    12  H    2.259702   0.000000
    13  H    3.969545   3.650981   0.000000
    14  H    3.650981   3.969545   1.074311   0.000000
    15  H    1.770842   2.870912   3.600414   3.245821   0.000000
    16  H    2.870912   1.770842   3.245821   3.600414   2.259702
                   16
    16  H    0.000000
 Stoichiometry    C6H10
 Framework group  CS[X(C6H10)]
 Deg. of freedom    21
 Full point group                 CS      NOp   2
 Largest Abelian subgroup         CS      NOp   2
 Largest concise Abelian subgroup CS      NOp   2
                         Standard orientation:                         
 ---------------------------------------------------------------------
 Center     Atomic      Atomic             Coordinates (Angstroms)
 Number     Number       Type             X           Y           Z
 ---------------------------------------------------------------------
      1          6           0        0.356167    0.635722    1.100227
      2          1           0        0.497344    0.835063    2.141972
      3          6           0       -0.835591    1.136924    0.698436
      4          1           0       -1.615282    1.506590    1.331152
      5          6           0        0.356167    0.635722   -1.100227
      6          1           0        0.497344    0.835063   -2.141972
      7          6           0       -0.835591    1.136924   -0.698436
      8          1           0       -1.615282    1.506590   -1.331152
      9          6           0        0.356167   -1.644105    0.739631
     10          6           0        0.356167   -1.644105   -0.739631
     11          1           0       -0.529254   -2.100897    1.129851
     12          1           0       -0.529254   -2.100897   -1.129851
     13          1           0        1.145144    1.088894   -0.537156
     14          1           0        1.145144    1.088894    0.537156
     15          1           0        1.241588   -2.100897    1.129851
     16          1           0        1.241588   -2.100897   -1.129851
 ---------------------------------------------------------------------
 Rotational constants (GHZ):      5.2955943      3.0330561      2.3390438
 Standard basis: 6-31+G(d) (6D, 7F)
 There are    67 symmetry adapted cartesian basis functions of A'  symmetry.
 There are    67 symmetry adapted cartesian basis functions of A"  symmetry.
 There are    67 symmetry adapted basis functions of A'  symmetry.
 There are    67 symmetry adapted basis functions of A"  symmetry.
   134 basis functions,   232 primitive gaussians,   134 cartesian basis functions
    23 alpha electrons       23 beta electrons
       nuclear repulsion energy       227.7782105495 Hartrees.
 NAtoms=   16 NActive=   16 NUniq=    8 SFac= 4.00D+00 NAtFMM=   60 NAOKFM=F Big=F
 Integral buffers will be    131072 words long.
 Raffenetti 2 integral format.
 Two-electron integral symmetry is turned on.
 One-electron integrals computed using PRISM.
 NBasis=   134 RedAO= T EigKep=  1.44D-05  NBF=    67    67
 NBsUse=   134 1.00D-06 EigRej= -1.00D+00 NBFU=    67    67
 ExpMin= 4.38D-02 ExpMax= 3.05D+03 ExpMxC= 4.57D+02 IAcc=2 IRadAn=         4 AccDes= 0.00D+00
 Harris functional with IExCor= 1009 and IRadAn=       4 diagonalized for initial guess.
 HarFok:  IExCor= 1009 AccDes= 0.00D+00 IRadAn=         4 IDoV= 1 UseB2=F ITyADJ=14
 ICtDFT=  3500011 ScaDFX=  1.000000  1.000000  1.000000  1.000000
 FoFCou: FMM=F IPFlag=           0 FMFlag=      100000 FMFlg1=           0
         NFxFlg=           0 DoJE=T BraDBF=F KetDBF=T FulRan=T
         wScrn=  0.000000 ICntrl=     500 IOpCl=  0 I1Cent=   200000004 NGrid=           0
         NMat0=    1 NMatS0=      1 NMatT0=    0 NMatD0=    1 NMtDS0=    0 NMtDT0=    0
 Petite list used in FoFCou.
 Initial guess orbital symmetries:
       Occupied  (A") (A') (A') (A") (A') (A") (A') (A') (A") (A')
                 (A") (A') (A") (A') (A') (A') (A") (A') (A') (A")
                 (A") (A') (A")
       Virtual   (A') (A") (A") (A') (A') (A') (A") (A') (A") (A')
                 (A") (A') (A') (A') (A') (A") (A') (A") (A") (A')
                 (A") (A") (A') (A") (A') (A") (A') (A") (A') (A")
                 (A") (A') (A") (A") (A") (A') (A') (A") (A") (A")
                 (A") (A') (A') (A') (A') (A") (A') (A") (A") (A')
                 (A') (A") (A') (A") (A") (A') (A') (A") (A") (A")
                 (A') (A') (A') (A") (A") (A') (A') (A') (A") (A")
                 (A") (A") (A') (A') (A') (A") (A') (A') (A") (A')
                 (A') (A") (A") (A') (A') (A') (A") (A') (A') (A")
                 (A') (A") (A") (A') (A") (A") (A") (A') (A") (A")
                 (A") (A') (A") (A") (A") (A') (A') (A") (A') (A")
                 (A")
 The electronic state of the initial guess is 1-A'.
 Requested convergence on RMS density matrix=1.00D-08 within 128 cycles.
 Requested convergence on MAX density matrix=1.00D-06.
 Requested convergence on             energy=1.00D-06.
 No special actions if energy rises.
 SCF Done:  E(RM062X) =  -234.256652651     A.U. after   13 cycles
            NFock= 13  Conv=0.87D-08     -V/T= 2.0064
 DoSCS=F DFT=T ScalE2(SS,OS)=  1.000000  1.000000
 Range of M.O.s used for correlation:     1   134
 NBasis=   134 NAE=    23 NBE=    23 NFC=     0 NFV=     0
 NROrb=    134 NOA=    23 NOB=    23 NVA=   111 NVB=   111

 **** Warning!!: The largest alpha MO coefficient is  0.79840710D+02

 Symmetrizing basis deriv contribution to polar:
 IMax=3 JMax=2 DiffMx= 0.00D+00
 G2DrvN: will do    17 centers at a time, making    1 passes.
 Calling FoFCou, ICntrl=  3107 FMM=F I1Cent=   0 AccDes= 0.00D+00.
 End of G2Drv F.D. properties file   721 does not exist.
 End of G2Drv F.D. properties file   722 does not exist.
 End of G2Drv F.D. properties file   788 does not exist.
          IDoAtm=1111111111111111
          Differentiating once with respect to nuclear coordinates.
          There are    27 degrees of freedom in the 1st order CPHF.  IDoFFX=4 NUNeed=    27.
     24 vectors produced by pass  0 Test12= 9.46D-15 3.70D-09 XBig12= 7.44D-02 1.01D-01.
 AX will form    24 AO Fock derivatives at one time.
     24 vectors produced by pass  1 Test12= 9.46D-15 3.70D-09 XBig12= 1.15D-02 4.18D-02.
     24 vectors produced by pass  2 Test12= 9.46D-15 3.70D-09 XBig12= 5.15D-04 4.00D-03.
     24 vectors produced by pass  3 Test12= 9.46D-15 3.70D-09 XBig12= 6.45D-06 4.44D-04.
     24 vectors produced by pass  4 Test12= 9.46D-15 3.70D-09 XBig12= 5.97D-08 4.01D-05.
     24 vectors produced by pass  5 Test12= 9.46D-15 3.70D-09 XBig12= 3.92D-10 3.61D-06.
     24 vectors produced by pass  6 Test12= 9.46D-15 3.70D-09 XBig12= 1.75D-12 2.11D-07.
     10 vectors produced by pass  7 Test12= 9.46D-15 3.70D-09 XBig12= 1.20D-14 2.26D-08.
 InvSVY:  IOpt=1 It=  1 EMax= 2.78D-16
 Solved reduced A of dimension   178 with    27 vectors.
 End of Minotr F.D. properties file   721 does not exist.
 End of Minotr F.D. properties file   722 does not exist.
 End of Minotr F.D. properties file   788 does not exist.

 **********************************************************************

            Population analysis using the SCF density.

 **********************************************************************

 Orbital symmetries:
       Occupied  (A') (A") (A') (A") (A") (A') (A') (A') (A") (A')
                 (A") (A') (A") (A') (A') (A') (A") (A') (A") (A')
                 (A") (A') (A")
       Virtual   (A') (A") (A') (A') (A") (A') (A") (A") (A') (A')
                 (A') (A") (A') (A") (A') (A') (A") (A') (A") (A")
                 (A") (A') (A") (A") (A') (A") (A") (A') (A') (A')
                 (A") (A') (A") (A') (A") (A") (A') (A") (A") (A")
                 (A") (A') (A') (A') (A') (A") (A') (A") (A") (A')
                 (A') (A") (A") (A') (A") (A') (A') (A") (A") (A')
                 (A") (A') (A') (A") (A") (A') (A') (A") (A') (A")
                 (A") (A") (A') (A") (A') (A') (A') (A') (A") (A')
                 (A') (A") (A") (A') (A') (A') (A") (A') (A") (A')
                 (A") (A') (A") (A') (A") (A") (A") (A') (A") (A")
                 (A") (A") (A') (A") (A") (A') (A') (A") (A') (A")
                 (A")
 The electronic state is 1-A'.
 Alpha  occ. eigenvalues --  -10.56100 -10.56051 -10.54201 -10.54126 -10.53679
 Alpha  occ. eigenvalues --  -10.53676  -0.96179  -0.84063  -0.80200  -0.73528
 Alpha  occ. eigenvalues --   -0.66417  -0.59020  -0.58310  -0.54715  -0.52225
 Alpha  occ. eigenvalues --   -0.46153  -0.43326  -0.41601  -0.41317  -0.40012
 Alpha  occ. eigenvalues --   -0.37166  -0.28111  -0.28076
 Alpha virt. eigenvalues --   -0.01586   0.00839   0.02709   0.03435   0.03489
 Alpha virt. eigenvalues --    0.05212   0.05329   0.06913   0.07601   0.08069
 Alpha virt. eigenvalues --    0.08634   0.10181   0.11143   0.11940   0.12298
 Alpha virt. eigenvalues --    0.12644   0.12698   0.13376   0.14780   0.16428
 Alpha virt. eigenvalues --    0.16923   0.18095   0.19133   0.20177   0.20195
 Alpha virt. eigenvalues --    0.23206   0.25171   0.25187   0.25807   0.29828
 Alpha virt. eigenvalues --    0.32767   0.33392   0.33913   0.35132   0.36068
 Alpha virt. eigenvalues --    0.37499   0.39230   0.43065   0.44322   0.49539
 Alpha virt. eigenvalues --    0.55313   0.60155   0.64417   0.67868   0.72233
 Alpha virt. eigenvalues --    0.75072   0.75609   0.76750   0.81590   0.82949
 Alpha virt. eigenvalues --    0.84138   0.86240   0.86913   0.86924   0.87642
 Alpha virt. eigenvalues --    0.89274   0.93152   0.97896   0.99735   1.03004
 Alpha virt. eigenvalues --    1.04488   1.07191   1.09351   1.11068   1.12465
 Alpha virt. eigenvalues --    1.13474   1.15993   1.19030   1.19975   1.22426
 Alpha virt. eigenvalues --    1.26529   1.30835   1.37323   1.46021   1.47833
 Alpha virt. eigenvalues --    1.48112   1.58757   1.59235   1.62892   1.78384
 Alpha virt. eigenvalues --    1.83544   1.84846   1.91828   1.98455   2.09674
 Alpha virt. eigenvalues --    2.15799   2.17320   2.20394   2.21275   2.22439
 Alpha virt. eigenvalues --    2.26784   2.27981   2.31904   2.35579   2.38588
 Alpha virt. eigenvalues --    2.42886   2.46406   2.47970   2.55109   2.61461
 Alpha virt. eigenvalues --    2.66821   2.73853   2.75312   2.93295   3.05922
 Alpha virt. eigenvalues --    4.23116   4.33725   4.37855   4.42473   4.52591
 Alpha virt. eigenvalues --    4.67316
          Condensed to atoms (all electrons):
               1          2          3          4          5          6
     1  C    6.185145   0.350463   0.274193  -0.030186  -0.647752   0.048518
     2  H    0.350463   0.531329  -0.061125  -0.006764   0.048518  -0.000221
     3  C    0.274193  -0.061125   5.114443   0.345056  -0.027500   0.009188
     4  H   -0.030186  -0.006764   0.345056   0.488421  -0.014831  -0.000103
     5  C   -0.647752   0.048518  -0.027500  -0.014831   6.185145   0.350463
     6  H    0.048518  -0.000221   0.009188  -0.000103   0.350463   0.531329
     7  C   -0.027500   0.009188   0.484687  -0.000052   0.274193  -0.061125
     8  H   -0.014831  -0.000103  -0.000052  -0.004268  -0.030186  -0.006764
     9  C    0.260116  -0.021216  -0.097465   0.009699  -0.118716   0.003696
    10  C   -0.118716   0.003696   0.011563  -0.004893   0.260116  -0.021216
    11  H   -0.031974   0.000256   0.008901  -0.000048   0.012257  -0.000028
    12  H    0.012257  -0.000028  -0.004163   0.000012  -0.031974   0.000256
    13  H   -0.186688   0.004993   0.029013  -0.000621   0.460144  -0.042417
    14  H    0.460144  -0.042417  -0.044219   0.005918  -0.186688   0.004993
    15  H   -0.023792   0.000183   0.006561  -0.000013   0.010071  -0.000021
    16  H    0.010071  -0.000021   0.000295   0.000002  -0.023792   0.000183
               7          8          9         10         11         12
     1  C   -0.027500  -0.014831   0.260116  -0.118716  -0.031974   0.012257
     2  H    0.009188  -0.000103  -0.021216   0.003696   0.000256  -0.000028
     3  C    0.484687  -0.000052  -0.097465   0.011563   0.008901  -0.004163
     4  H   -0.000052  -0.004268   0.009699  -0.004893  -0.000048   0.000012
     5  C    0.274193  -0.030186  -0.118716   0.260116   0.012257  -0.031974
     6  H   -0.061125  -0.006764   0.003696  -0.021216  -0.000028   0.000256
     7  C    5.114443   0.345056   0.011563  -0.097465  -0.004163   0.008901
     8  H    0.345056   0.488421  -0.004893   0.009699   0.000012  -0.000048
     9  C    0.011563  -0.004893   5.649450   0.062543   0.404441  -0.057383
    10  C   -0.097465   0.009699   0.062543   5.649450  -0.057383   0.404441
    11  H   -0.004163   0.000012   0.404441  -0.057383   0.495012  -0.008416
    12  H    0.008901  -0.000048  -0.057383   0.404441  -0.008416   0.495012
    13  H   -0.044219   0.005918  -0.012658  -0.000224   0.000007   0.000050
    14  H    0.029013  -0.000621  -0.000224  -0.012658   0.000050   0.000007
    15  H    0.000295   0.000002   0.399310  -0.055799  -0.036392   0.004681
    16  H    0.006561  -0.000013  -0.055799   0.399310   0.004681  -0.036392
              13         14         15         16
     1  C   -0.186688   0.460144  -0.023792   0.010071
     2  H    0.004993  -0.042417   0.000183  -0.000021
     3  C    0.029013  -0.044219   0.006561   0.000295
     4  H   -0.000621   0.005918  -0.000013   0.000002
     5  C    0.460144  -0.186688   0.010071  -0.023792
     6  H   -0.042417   0.004993  -0.000021   0.000183
     7  C   -0.044219   0.029013   0.000295   0.006561
     8  H    0.005918  -0.000621   0.000002  -0.000013
     9  C   -0.012658  -0.000224   0.399310  -0.055799
    10  C   -0.000224  -0.012658  -0.055799   0.399310
    11  H    0.000007   0.000050  -0.036392   0.004681
    12  H    0.000050   0.000007   0.004681  -0.036392
    13  H    0.623211  -0.016620   0.000231  -0.000466
    14  H   -0.016620   0.623211  -0.000466   0.000231
    15  H    0.000231  -0.000466   0.490679  -0.007759
    16  H   -0.000466   0.000231  -0.007759   0.490679
 Mulliken charges:
               1
     1  C   -0.519466
     2  H    0.183268
     3  C   -0.049374
     4  H    0.212671
     5  C   -0.519466
     6  H    0.183268
     7  C   -0.049374
     8  H    0.212671
     9  C   -0.432463
    10  C   -0.432463
    11  H    0.212788
    12  H    0.212788
    13  H    0.180347
    14  H    0.180347
    15  H    0.212230
    16  H    0.212230
 Sum of Mulliken charges =   0.00000
 Mulliken charges with hydrogens summed into heavy atoms:
               1
     1  C   -0.155851
     3  C    0.163297
     5  C   -0.155851
     7  C    0.163297
     9  C   -0.007446
    10  C   -0.007446
 APT charges:
               1
     1  C   -1.079885
     2  H    0.501156
     3  C   -0.415243
     4  H    0.597903
     5  C   -1.079885
     6  H    0.501156
     7  C   -0.415243
     8  H    0.597903
     9  C   -1.098228
    10  C   -1.098228
    11  H    0.510858
    12  H    0.510858
    13  H    0.400447
    14  H    0.400447
    15  H    0.582993
    16  H    0.582993
 Sum of APT charges =   0.00000
 APT charges with hydrogens summed into heavy atoms:
               1
     1  C   -0.178283
     3  C    0.182660
     5  C   -0.178283
     7  C    0.182660
     9  C   -0.004377
    10  C   -0.004377
 Electronic spatial extent (au):  <R**2>=            611.9551
 Charge=              0.0000 electrons
 Dipole moment (field-independent basis, Debye):
    X=             -0.1503    Y=              0.0268    Z=              0.0000  Tot=              0.1526
 Quadrupole moment (field-independent basis, Debye-Ang):
   XX=            -37.0731   YY=            -37.1130   ZZ=            -40.4014
   XY=             -0.5722   XZ=              0.0000   YZ=              0.0000
 Traceless Quadrupole moment (field-independent basis, Debye-Ang):
   XX=              1.1228   YY=              1.0828   ZZ=             -2.2055
   XY=             -0.5722   XZ=              0.0000   YZ=              0.0000
 Octapole moment (field-independent basis, Debye-Ang**2):
  XXX=             -0.7461  YYY=             -7.0775  ZZZ=              0.0000  XYY=             -0.0760
  XXY=              2.0574  XXZ=              0.0000  XZZ=             -3.5484  YZZ=              2.0449
  YYZ=              0.0000  XYZ=              0.0000
 Hexadecapole moment (field-independent basis, Debye-Ang**3):
 XXXX=           -151.3194 YYYY=           -451.6250 ZZZZ=           -277.7168 XXXY=             44.6347
 XXXZ=              0.0000 YYYX=             50.0432 YYYZ=              0.0000 ZZZX=              0.0000
 ZZZY=              0.0000 XXYY=            -85.7234 XXZZ=            -69.0068 YYZZ=           -115.3550
 XXYZ=              0.0000 YYXZ=              0.0000 ZZXY=             12.6715
 N-N= 2.277782105495D+02 E-N=-9.973193256294D+02  KE= 2.327637608634D+02
 Symmetry A'   KE= 1.190051100917D+02
 Symmetry A"   KE= 1.137586507716D+02
  Exact polarizability:   0.000   0.000   0.000   0.000   0.000   0.000
 Approx polarizability:  78.378 -20.084 132.017   0.000   0.000  99.708
 Calling FoFJK, ICntrl=    100147 FMM=F ISym2X=1 I1Cent= 0 IOpClX= 0 NMat=1 NMatS=1 NMatT=0.
 ***** Axes restored to original set *****
 -------------------------------------------------------------------
 Center     Atomic                   Forces (Hartrees/Bohr)
 Number     Number              X              Y              Z
 -------------------------------------------------------------------
      1        6          -0.029170808    0.126828652   -0.006091395
      2        1          -0.015343731    0.021070690   -0.000641727
      3        6           0.021502915   -0.038395032   -0.021316381
      4        1          -0.000744389    0.006898395   -0.011351227
      5        6          -0.006112922   -0.128358959    0.021451288
      6        1          -0.011352010   -0.023106723    0.004126391
      7        6           0.014762627    0.036201478   -0.029367666
      8        1           0.000707040   -0.009164947   -0.009617492
      9        6           0.025647848   -0.051197571    0.018076013
     10        6           0.015819152    0.057579163    0.006335619
     11        1           0.014500756    0.016398764   -0.012215450
     12        1           0.017408105   -0.015777615   -0.008742618
     13        1          -0.023286584   -0.053782957    0.013259624
     14        1          -0.032697792    0.050373321    0.002017921
     15        1           0.002896345    0.016422067    0.015505346
     16        1           0.005463447   -0.011988725    0.018571754
 -------------------------------------------------------------------
 Cartesian Forces:  Max     0.128358959 RMS     0.034511248
 FormGI is forming the generalized inverse of G from B-inverse, IUseBI=4.

 GradGradGradGradGradGradGradGradGradGradGradGradGradGradGradGradGradGrad
 Berny optimization.
 Internal  Forces:  Max     0.117844372 RMS     0.037773757
 Search for a saddle point.
 Step number   1 out of a maximum of   99
 All quantities printed in internal units (Hartrees-Bohrs-Radians)
 Swapping is turned off.
 Second derivative matrix not updated -- analytic derivatives used.
 ITU=  0
     Eigenvalues ---   -0.11262  -0.06717  -0.01400  -0.00463   0.00371
     Eigenvalues ---    0.01409   0.01527   0.01757   0.02049   0.02131
     Eigenvalues ---    0.02741   0.02908   0.02971   0.03672   0.04211
     Eigenvalues ---    0.04448   0.04540   0.05063   0.05296   0.06154
     Eigenvalues ---    0.08101   0.08117   0.10799   0.10894   0.11522
     Eigenvalues ---    0.14664   0.23357   0.28000   0.29656   0.36964
     Eigenvalues ---    0.38833   0.39599   0.39713   0.39738   0.40074
     Eigenvalues ---    0.40154   0.40177   0.40241   0.40390   0.51681
     Eigenvalues ---    0.56690   1.17835
 Eigenvectors required to have negative eigenvalues:
                          A15       A6        R9        R3        D16
   1                    0.32306  -0.32306   0.28459  -0.28459  -0.26679
                          D5        D25       D17       D18       D6
   1                   -0.24279  -0.24279  -0.21945  -0.21945  -0.19571
 RFO step:  Lambda0=0.000000000D+00 Lambda=-1.56388254D-01.
 Linear search not attempted -- option 19 set.
 Maximum step size (   0.300) exceeded in Quadratic search.
    -- Step size scaled by   0.303
 Iteration  1 RMS(Cart)=  0.04886429 RMS(Int)=  0.00508812
 Iteration  2 RMS(Cart)=  0.00694362 RMS(Int)=  0.00041471
 Iteration  3 RMS(Cart)=  0.00001199 RMS(Int)=  0.00041466
 Iteration  4 RMS(Cart)=  0.00000000 RMS(Int)=  0.00041466
 ClnCor:  largest displacement from symmetrization is 1.81D-01 for atom    12.
          Exceeds limit of 1.00D-01 so symmetrization was rejected.
 Variable       Old X    -DE/DX   Delta X   Delta X   Delta X     New X
                                 (Linear)    (Quad)   (Total)
    R1        2.02201   0.02020   0.00000   0.00852   0.00852   2.03052
    R2        2.55842   0.08097   0.00000   0.04856   0.04782   2.60624
    R3        4.36181  -0.03565   0.00000  -0.24876  -0.24892   4.11289
    R4        2.02201  -0.02630   0.00000   0.01283   0.01283   2.03484
    R5        2.02201   0.01094   0.00000   0.00633   0.00633   2.02834
    R6        2.63971   0.11784   0.00000  -0.02073  -0.02123   2.61848
    R7        2.02201   0.02020   0.00000   0.00753   0.00753   2.02954
    R8        2.55842   0.08097   0.00000   0.03891   0.03934   2.59776
    R9        4.36181  -0.03565   0.00000  -0.10470  -0.10436   4.25744
   R10        2.02201  -0.02630   0.00000   0.00373   0.00373   2.02574
   R11        2.02201   0.01094   0.00000   0.00598   0.00598   2.02799
   R12        2.79540   0.03202   0.00000   0.02189   0.02237   2.81777
   R13        2.02201   0.01314   0.00000   0.00667   0.00667   2.02868
   R14        2.02201   0.01364   0.00000   0.00746   0.00746   2.02947
   R15        2.02201   0.01314   0.00000   0.00716   0.00716   2.02916
   R16        2.02201   0.01364   0.00000   0.00698   0.00698   2.02899
    A1        1.91358   0.05553   0.00000   0.01570   0.01541   1.92899
    A2        1.91358   0.02933   0.00000  -0.00746  -0.00712   1.90646
    A3        1.91362  -0.01949   0.00000  -0.00419  -0.00425   1.90937
    A4        1.89578  -0.08183   0.00000  -0.02969  -0.02968   1.86611
    A5        1.91358   0.02517   0.00000   0.00737   0.00753   1.92111
    A6        1.91358  -0.00898   0.00000   0.01814   0.01794   1.93153
    A7        2.20663  -0.03643   0.00000  -0.01692  -0.01666   2.18996
    A8        1.87211   0.06887   0.00000   0.02788   0.02729   1.89940
    A9        2.20349  -0.03107   0.00000  -0.01050  -0.01021   2.19328
   A10        1.91358   0.05553   0.00000   0.03136   0.03091   1.94450
   A11        1.91358   0.02933   0.00000   0.02149   0.02205   1.93563
   A12        1.91362  -0.01949   0.00000   0.00485   0.00469   1.91831
   A13        1.89578  -0.08183   0.00000  -0.02771  -0.02811   1.86767
   A14        1.91358   0.02517   0.00000   0.01379   0.01290   1.92648
   A15        1.91358  -0.00898   0.00000  -0.04401  -0.04430   1.86929
   A16        1.87211   0.06887   0.00000   0.02137   0.02188   1.89399
   A17        2.20349  -0.03107   0.00000  -0.00866  -0.00891   2.19459
   A18        2.20663  -0.03643   0.00000  -0.01259  -0.01284   2.19379
   A19        1.72767   0.05589   0.00000   0.04552   0.04609   1.77376
   A20        1.94410  -0.02568   0.00000  -0.03088  -0.03085   1.91324
   A21        1.94410  -0.02475   0.00000  -0.01667  -0.01772   1.92638
   A22        1.94410  -0.04499   0.00000  -0.00229  -0.00188   1.94222
   A23        1.94410   0.02823   0.00000   0.00184   0.00184   1.94594
   A24        1.94927   0.01381   0.00000   0.00542   0.00499   1.95426
   A25        1.72767   0.05589   0.00000  -0.00864  -0.00770   1.71996
   A26        1.94410  -0.02568   0.00000  -0.00503  -0.00584   1.93826
   A27        1.94410  -0.02475   0.00000   0.00381   0.00400   1.94810
   A28        1.94410  -0.04499   0.00000  -0.00808  -0.00795   1.93615
   A29        1.94410   0.02823   0.00000   0.01594   0.01521   1.95931
   A30        1.94927   0.01381   0.00000   0.00111   0.00131   1.95058
    D1       -0.19418   0.00842   0.00000   0.01388   0.01406  -0.18013
    D2        2.90268   0.04025   0.00000   0.02462   0.02498   2.92766
    D3        1.89656   0.02756   0.00000  -0.00382  -0.00350   1.89305
    D4       -1.28977   0.05939   0.00000   0.00692   0.00742  -1.28235
    D5       -2.29589  -0.01788   0.00000   0.00467   0.00470  -2.29119
    D6        0.80097   0.01395   0.00000   0.01540   0.01562   0.81659
    D7       -3.00104  -0.03904   0.00000  -0.00119  -0.00097  -3.00201
    D8        1.23506  -0.00721   0.00000  -0.01063  -0.01030   1.22476
    D9       -0.95395   0.01291   0.00000   0.01834   0.01824  -0.93572
   D10        1.19141  -0.07451   0.00000   0.00208   0.00201   1.19342
   D11       -0.85568  -0.04268   0.00000  -0.00736  -0.00731  -0.86299
   D12       -3.04469  -0.02256   0.00000   0.02161   0.02122  -3.02347
   D13       -0.89933  -0.05035   0.00000   0.00031   0.00048  -0.89885
   D14       -2.94642  -0.01853   0.00000  -0.00913  -0.00885  -2.95526
   D15        1.14775   0.00159   0.00000   0.01984   0.01969   1.16745
   D16        0.00000   0.00000   0.00000  -0.00638  -0.00617  -0.00617
   D17       -3.09696  -0.03157   0.00000  -0.00907  -0.00923  -3.10619
   D18        3.09696   0.03157   0.00000   0.00412   0.00456   3.10153
   D19        0.00000   0.00000   0.00000   0.00143   0.00151   0.00151
   D20       -2.90268  -0.04025   0.00000  -0.00455  -0.00518  -2.90786
   D21        0.19418  -0.00842   0.00000  -0.00172  -0.00200   0.19219
   D22        1.28977  -0.05939   0.00000  -0.03252  -0.03295   1.25682
   D23       -1.89656  -0.02756   0.00000  -0.02969  -0.02977  -1.92632
   D24       -0.80097  -0.01395   0.00000   0.02957   0.02949  -0.77148
   D25        2.29589   0.01788   0.00000   0.03240   0.03267   2.32856
   D26        3.00104   0.03904   0.00000   0.02027   0.01979   3.02082
   D27       -1.23506   0.00721   0.00000   0.00464   0.00465  -1.23041
   D28        0.95395  -0.01291   0.00000   0.00517   0.00496   0.95892
   D29       -1.19141   0.07451   0.00000   0.05439   0.05315  -1.13826
   D30        0.85568   0.04268   0.00000   0.03876   0.03801   0.89369
   D31        3.04469   0.02256   0.00000   0.03929   0.03833   3.08302
   D32        0.89933   0.05035   0.00000   0.02834   0.02832   0.92765
   D33        2.94642   0.01853   0.00000   0.01271   0.01319   2.95960
   D34       -1.14775  -0.00159   0.00000   0.01324   0.01350  -1.13425
   D35        0.00000   0.00000   0.00000  -0.02461  -0.02544  -0.02544
   D36       -2.04709   0.01717   0.00000  -0.01130  -0.01193  -2.05902
   D37        2.04709   0.01172   0.00000  -0.01873  -0.01915   2.02793
   D38        2.04709  -0.01717   0.00000  -0.03688  -0.03712   2.00997
   D39        0.00000   0.00000   0.00000  -0.02357  -0.02361  -0.02361
   D40       -2.18902  -0.00545   0.00000  -0.03100  -0.03083  -2.21984
   D41       -2.04709  -0.01172   0.00000  -0.03010  -0.03057  -2.07766
   D42        2.18902   0.00545   0.00000  -0.01678  -0.01707   2.17195
   D43        0.00000   0.00000   0.00000  -0.02421  -0.02428  -0.02428
         Item               Value     Threshold  Converged?
 Maximum Force            0.117844     0.000450     NO 
 RMS     Force            0.037774     0.000300     NO 
 Maximum Displacement     0.246462     0.001800     NO 
 RMS     Displacement     0.054013     0.001200     NO 
 Predicted change in Energy=-4.864397D-02
 GradGradGradGradGradGradGradGradGradGradGradGradGradGradGradGradGradGrad

                          Input orientation:                          
 ---------------------------------------------------------------------
 Center     Atomic      Atomic             Coordinates (Angstroms)
 Number     Number       Type             X           Y           Z
 ---------------------------------------------------------------------
      1          6           0        0.626658    1.314356    0.063232
      2          1           0        0.654013    2.386824    0.123467
      3          6           0        1.520043    0.860352   -0.884308
      4          1           0        2.043890    1.474810   -1.591492
      5          6           0        0.867033   -0.928079    0.296680
      6          1           0        1.109554   -1.929919    0.598254
      7          6           0        1.662487   -0.510776   -0.743915
      8          1           0        2.315416   -1.135682   -1.322586
      9          6           0       -1.354327    0.682728   -0.579936
     10          6           0       -1.267613   -0.796298   -0.411603
     11          1           0       -1.501327    0.949765   -1.609281
     12          1           0       -1.393384   -1.297567   -1.352843
     13          1           0        0.964017   -0.262077    1.131042
     14          1           0        0.864966    0.895861    1.026327
     15          1           0       -2.107395    1.107771    0.056925
     16          1           0       -1.953438   -1.162264    0.329029
 ---------------------------------------------------------------------
                    Distance matrix (angstroms):
                    1          2          3          4          5
     1  C    0.000000
     2  H    1.074506   0.000000
     3  C    1.379163   2.023792   0.000000
     4  H    2.184584   2.388433   1.073352   0.000000
     5  C    2.267332   3.326253   2.240456   3.274762   0.000000
     6  H    3.323366   4.366601   3.186237   4.154534   1.073986
     7  C    2.248452   3.188332   1.385639   2.192352   1.374674
     8  H    3.282543   4.154441   2.192912   2.638316   2.182415
     9  C    2.176447   2.726197   2.895893   3.632977   2.880555
    10  C    2.875516   3.756490   3.277037   4.185227   2.252941
    11  H    2.731033   3.116575   3.108417   3.583929   3.573249
    12  H    3.592768   4.466102   3.655708   4.422430   2.822575
    13  H    1.933693   2.850962   2.372899   3.405157   1.071973
    14  H    1.076792   1.755741   2.020127   2.928826   1.964471
    15  H    2.741854   3.043975   3.755722   4.481648   3.612394
    16  H    3.586250   4.408750   4.198599   5.159573   2.830360
                    6          7          8          9         10
     6  H    0.000000
     7  C    2.030054   0.000000
     8  H    2.403028   1.073166   0.000000
     9  C    3.779519   3.248463   4.162351   0.000000
    10  C    2.820608   2.962675   3.712569   1.491099   0.000000
    11  H    4.470177   3.590509   4.358763   1.073530   2.130209
    12  H    3.235945   3.213748   3.712455   2.126142   1.073788
    13  H    1.756913   2.016228   2.934239   3.032297   2.765018
    14  H    2.868467   2.397587   3.427589   2.747866   3.078789
    15  H    4.457506   4.180078   5.147562   1.073949   2.133128
    16  H    3.169178   3.827604   4.577297   2.142229   1.073695
                   11         12         13         14         15
    11  H    0.000000
    12  H    2.264490   0.000000
    13  H    3.880187   3.577606   0.000000
    14  H    3.542410   3.946101   1.166874   0.000000
    15  H    1.780036   2.878005   3.530409   3.133620   0.000000
    16  H    2.902088   1.777824   3.156756   3.558862   2.291463
                   16
    16  H    0.000000
 Stoichiometry    C6H10
 Framework group  C1[X(C6H10)]
 Deg. of freedom    42
 Full point group                 C1      NOp   1
 Omega: Change in point group or standard orientation.

 Old FWG=CS   [X(C6H10)]
 New FWG=C01  [X(C6H10)]
 Largest Abelian subgroup         C1      NOp   1
 Largest concise Abelian subgroup C1      NOp   1
                         Standard orientation:                         
 ---------------------------------------------------------------------
 Center     Atomic      Atomic             Coordinates (Angstroms)
 Number     Number       Type             X           Y           Z
 ---------------------------------------------------------------------
      1          6           0       -0.424966    1.125397   -0.551973
      2          1           0       -0.538593    2.178665   -0.731638
      3          6           0       -1.300780    0.704604    0.426788
      4          1           0       -1.890101    1.346713    1.053270
      5          6           0       -0.475194   -1.141334   -0.537869
      6          1           0       -0.627509   -2.187031   -0.729613
      7          6           0       -1.327032   -0.680742    0.437812
      8          1           0       -1.940370   -1.291053    1.072653
      9          6           0        1.584988    0.736911    0.187003
     10          6           0        1.623772   -0.753678    0.183108
     11          1           0        1.684739    1.126668    1.182295
     12          1           0        1.767416   -1.136304    1.176075
     13          1           0       -0.606226   -0.581411   -1.442547
     14          1           0       -0.604888    0.585228   -1.465935
     15          1           0        2.315870    1.151310   -0.481915
     16          1           0        2.354937   -1.139733   -0.501859
 ---------------------------------------------------------------------
 Rotational constants (GHZ):      5.1549425      3.2145624      2.4228675
 Standard basis: 6-31+G(d) (6D, 7F)
 There are   134 symmetry adapted cartesian basis functions of A   symmetry.
 There are   134 symmetry adapted basis functions of A   symmetry.
   134 basis functions,   232 primitive gaussians,   134 cartesian basis functions
    23 alpha electrons       23 beta electrons
       nuclear repulsion energy       228.6001214316 Hartrees.
 NAtoms=   16 NActive=   16 NUniq=   16 SFac= 1.00D+00 NAtFMM=   60 NAOKFM=F Big=F
 Integral buffers will be    131072 words long.
 Raffenetti 2 integral format.
 Two-electron integral symmetry is turned on.
 One-electron integrals computed using PRISM.
 NBasis=   134 RedAO= T EigKep=  2.23D-05  NBF=   134
 NBsUse=   134 1.00D-06 EigRej= -1.00D+00 NBFU=   134
 Initial guess from the checkpoint file:  "/work/1952437.1.c2_smp.q/Gau-9455.chk"
 B after Tr=     0.000000    0.000000    0.000000
         Rot=    0.575554    0.575477   -0.413507   -0.408137 Ang= 109.72 deg.
 ExpMin= 4.38D-02 ExpMax= 3.05D+03 ExpMxC= 4.57D+02 IAcc=2 IRadAn=         4 AccDes= 0.00D+00
 Harris functional with IExCor= 1009 and IRadAn=       4 diagonalized for initial guess.
 HarFok:  IExCor= 1009 AccDes= 0.00D+00 IRadAn=         4 IDoV= 1 UseB2=F ITyADJ=14
 ICtDFT=  3500011 ScaDFX=  1.000000  1.000000  1.000000  1.000000
 FoFCou: FMM=F IPFlag=           0 FMFlag=      100000 FMFlg1=           0
         NFxFlg=           0 DoJE=T BraDBF=F KetDBF=T FulRan=T
         wScrn=  0.000000 ICntrl=     500 IOpCl=  0 I1Cent=   200000004 NGrid=           0
         NMat0=    1 NMatS0=      1 NMatT0=    0 NMatD0=    1 NMtDS0=    0 NMtDT0=    0
 Petite list used in FoFCou.
 Requested convergence on RMS density matrix=1.00D-08 within 128 cycles.
 Requested convergence on MAX density matrix=1.00D-06.
 Requested convergence on             energy=1.00D-06.
 No special actions if energy rises.
 SCF Done:  E(RM062X) =  -234.305519871     A.U. after   13 cycles
            NFock= 13  Conv=0.42D-08     -V/T= 2.0076
 Calling FoFJK, ICntrl=      2127 FMM=F ISym2X=0 I1Cent= 0 IOpClX= 0 NMat=1 NMatS=1 NMatT=0.
 ***** Axes restored to original set *****
 -------------------------------------------------------------------
 Center     Atomic                   Forces (Hartrees/Bohr)
 Number     Number              X              Y              Z
 -------------------------------------------------------------------
      1        6          -0.037584460    0.096218030   -0.014218861
      2        1          -0.012865133    0.015950939   -0.001003116
      3        6           0.018306724   -0.035143120   -0.013951817
      4        1          -0.000935707    0.005500833   -0.009140924
      5        6          -0.016830733   -0.101829131    0.009662082
      6        1          -0.009879506   -0.018354244    0.001978800
      7        6           0.010756408    0.034932259   -0.021571110
      8        1           0.000458937   -0.007379462   -0.007778801
      9        6           0.034104059   -0.038104494    0.023434273
     10        6           0.027831939    0.048014749    0.008921000
     11        1           0.012138954    0.014266081   -0.008695801
     12        1           0.014960748   -0.014833405   -0.005853299
     13        1          -0.019816758   -0.039318884    0.010263211
     14        1          -0.027569335    0.035795445    0.001029697
     15        1           0.002261910    0.013834575    0.011739695
     16        1           0.004661954   -0.009550171    0.015184971
 -------------------------------------------------------------------
 Cartesian Forces:  Max     0.101829131 RMS     0.028235076

 GradGradGradGradGradGradGradGradGradGradGradGradGradGradGradGradGradGrad
 Berny optimization.
 FormGI is forming the generalized inverse of G from B-inverse, IUseBI=4.
 Internal  Forces:  Max     0.083736403 RMS     0.029599665
 Search for a saddle point.
 Step number   2 out of a maximum of   99
 All quantities printed in internal units (Hartrees-Bohrs-Radians)
 Swapping is turned off.
 Update second derivatives using D2CorX and points    1    2
 ITU=  0  0
     Eigenvalues ---   -0.11267  -0.06496  -0.01182  -0.00363   0.00372
     Eigenvalues ---    0.01418   0.01527   0.01762   0.02046   0.02133
     Eigenvalues ---    0.02740   0.02907   0.02969   0.03805   0.04210
     Eigenvalues ---    0.04519   0.04550   0.05094   0.05316   0.06151
     Eigenvalues ---    0.08097   0.08116   0.10795   0.10903   0.11520
     Eigenvalues ---    0.14710   0.23352   0.27933   0.29652   0.36963
     Eigenvalues ---    0.38816   0.39599   0.39716   0.39738   0.40073
     Eigenvalues ---    0.40154   0.40177   0.40240   0.40390   0.51675
     Eigenvalues ---    0.56643   1.16481
 Eigenvectors required to have negative eigenvalues:
                          A6        A15       R3        R9        D16
   1                    0.31901  -0.31788   0.31326  -0.26797   0.26648
                          D25       D5        D18       D17       D24
   1                    0.24696   0.24161   0.21915   0.21892   0.19979
 RFO step:  Lambda0=8.687983551D-05 Lambda=-1.36344243D-01.
 Linear search not attempted -- option 19 set.
 Maximum step size (   0.300) exceeded in Quadratic search.
    -- Step size scaled by   0.296
 Iteration  1 RMS(Cart)=  0.04754660 RMS(Int)=  0.00393670
 Iteration  2 RMS(Cart)=  0.00530592 RMS(Int)=  0.00043488
 Iteration  3 RMS(Cart)=  0.00000568 RMS(Int)=  0.00043487
 Iteration  4 RMS(Cart)=  0.00000000 RMS(Int)=  0.00043487
 Variable       Old X    -DE/DX   Delta X   Delta X   Delta X     New X
                                 (Linear)    (Quad)   (Total)
    R1        2.03052   0.01554   0.00000   0.00632   0.00632   2.03684
    R2        2.60624   0.06305   0.00000   0.03840   0.03846   2.64470
    R3        4.11289  -0.04610   0.00000  -0.23737  -0.23796   3.87493
    R4        2.03484  -0.01910   0.00000  -0.00079  -0.00079   2.03405
    R5        2.02834   0.00872   0.00000   0.00500   0.00500   2.03334
    R6        2.61848   0.08374   0.00000  -0.02180  -0.02195   2.59653
    R7        2.02954   0.01544   0.00000   0.00619   0.00619   2.03573
    R8        2.59776   0.06452   0.00000   0.04008   0.03991   2.63766
    R9        4.25744  -0.04322   0.00000  -0.11569  -0.11505   4.14239
   R10        2.02574  -0.01823   0.00000   0.01482   0.01482   2.04055
   R11        2.02799   0.00877   0.00000   0.00551   0.00551   2.03350
   R12        2.81777   0.02568   0.00000   0.02172   0.02184   2.83961
   R13        2.02868   0.01022   0.00000   0.00514   0.00514   2.03382
   R14        2.02947   0.01085   0.00000   0.00629   0.00629   2.03575
   R15        2.02916   0.01031   0.00000   0.00584   0.00584   2.03500
   R16        2.02899   0.01075   0.00000   0.00587   0.00587   2.03486
    A1        1.92899   0.04288   0.00000   0.02465   0.02452   1.95351
    A2        1.90646   0.02294   0.00000  -0.01095  -0.01083   1.89564
    A3        1.90937  -0.01436   0.00000  -0.00309  -0.00293   1.90643
    A4        1.86611  -0.06205   0.00000   0.00074   0.00102   1.86713
    A5        1.92111   0.01960   0.00000  -0.04067  -0.04049   1.88063
    A6        1.93153  -0.00914   0.00000   0.02999   0.02963   1.96115
    A7        2.18996  -0.02779   0.00000   0.00262   0.00260   2.19256
    A8        1.89940   0.05218   0.00000   0.00510   0.00503   1.90443
    A9        2.19328  -0.02360   0.00000  -0.00728  -0.00727   2.18601
   A10        1.94450   0.04317   0.00000   0.01345   0.01328   1.95777
   A11        1.93563   0.02362   0.00000   0.02309   0.02314   1.95877
   A12        1.91831  -0.01445   0.00000   0.00463   0.00385   1.92216
   A13        1.86767  -0.06389   0.00000  -0.04339  -0.04324   1.82442
   A14        1.92648   0.01802   0.00000   0.05507   0.05320   1.97968
   A15        1.86929  -0.00914   0.00000  -0.05594  -0.05470   1.81459
   A16        1.89399   0.05427   0.00000   0.03525   0.03500   1.92899
   A17        2.19459  -0.02444   0.00000  -0.00886  -0.00877   2.18582
   A18        2.19379  -0.02884   0.00000  -0.02640  -0.02624   2.16755
   A19        1.77376   0.04521   0.00000   0.01947   0.01936   1.79312
   A20        1.91324  -0.02085   0.00000  -0.01846  -0.01857   1.89467
   A21        1.92638  -0.02183   0.00000  -0.00433  -0.00433   1.92205
   A22        1.94222  -0.03291   0.00000  -0.00158  -0.00130   1.94091
   A23        1.94594   0.02165   0.00000   0.00383   0.00372   1.94966
   A24        1.95426   0.01007   0.00000   0.00181   0.00169   1.95595
   A25        1.71996   0.04627   0.00000   0.01529   0.01643   1.73639
   A26        1.93826  -0.02308   0.00000  -0.01578  -0.01602   1.92224
   A27        1.94810  -0.01984   0.00000  -0.00850  -0.00913   1.93897
   A28        1.93615  -0.03329   0.00000  -0.00342  -0.00371   1.93243
   A29        1.95931   0.02021   0.00000   0.01050   0.01031   1.96962
   A30        1.95058   0.01148   0.00000   0.00258   0.00265   1.95323
    D1       -0.18013   0.00754   0.00000  -0.01191  -0.01177  -0.19190
    D2        2.92766   0.03209   0.00000   0.00189   0.00187   2.92952
    D3        1.89305   0.02196   0.00000  -0.01101  -0.01049   1.88256
    D4       -1.28235   0.04651   0.00000   0.00279   0.00315  -1.27920
    D5       -2.29119  -0.01525   0.00000   0.00259   0.00295  -2.28824
    D6        0.81659   0.00930   0.00000   0.01638   0.01659   0.83318
    D7       -3.00201  -0.02930   0.00000  -0.00166  -0.00153  -3.00355
    D8        1.22476  -0.00609   0.00000  -0.00205  -0.00190   1.22286
    D9       -0.93572   0.01026   0.00000   0.01125   0.01127  -0.92444
   D10        1.19342  -0.05739   0.00000  -0.02548  -0.02539   1.16803
   D11       -0.86299  -0.03417   0.00000  -0.02587  -0.02576  -0.88875
   D12       -3.02347  -0.01782   0.00000  -0.01257  -0.01258  -3.03605
   D13       -0.89885  -0.03807   0.00000   0.00627   0.00639  -0.89246
   D14       -2.95526  -0.01485   0.00000   0.00588   0.00602  -2.94924
   D15        1.16745   0.00150   0.00000   0.01918   0.01920   1.18665
   D16       -0.00617   0.00029   0.00000  -0.01366  -0.01282  -0.01900
   D17       -3.10619  -0.02435   0.00000  -0.01294  -0.01224  -3.11843
   D18        3.10153   0.02480   0.00000   0.00041   0.00099   3.10252
   D19        0.00151   0.00016   0.00000   0.00113   0.00157   0.00308
   D20       -2.90786  -0.03266   0.00000  -0.02562  -0.02592  -2.93378
   D21        0.19219  -0.00790   0.00000  -0.02582  -0.02600   0.16619
   D22        1.25682  -0.04623   0.00000  -0.03401  -0.03405   1.22277
   D23       -1.92632  -0.02147   0.00000  -0.03421  -0.03413  -1.96045
   D24       -0.77148  -0.00874   0.00000   0.02812   0.02924  -0.74224
   D25        2.32856   0.01603   0.00000   0.02792   0.02916   2.35773
   D26        3.02082   0.02938   0.00000   0.01615   0.01628   3.03710
   D27       -1.23041   0.00682   0.00000   0.01433   0.01445  -1.21596
   D28        0.95892  -0.01062   0.00000  -0.00069  -0.00066   0.95826
   D29       -1.13826   0.05557   0.00000   0.01870   0.01816  -1.12010
   D30        0.89369   0.03301   0.00000   0.01689   0.01633   0.91002
   D31        3.08302   0.01557   0.00000   0.00186   0.00122   3.08424
   D32        0.92765   0.03899   0.00000   0.03181   0.03252   0.96017
   D33        2.95960   0.01643   0.00000   0.03000   0.03069   2.99029
   D34       -1.13425  -0.00101   0.00000   0.01498   0.01558  -1.11868
   D35       -0.02544  -0.00137   0.00000   0.01605   0.01622  -0.00923
   D36       -2.05902   0.01339   0.00000   0.02741   0.02742  -2.03159
   D37        2.02793   0.00867   0.00000   0.01860   0.01886   2.04680
   D38        2.00997  -0.01507   0.00000   0.00456   0.00463   2.01459
   D39       -0.02361  -0.00031   0.00000   0.01592   0.01583  -0.00778
   D40       -2.21984  -0.00504   0.00000   0.00710   0.00727  -2.21257
   D41       -2.07766  -0.01046   0.00000   0.00866   0.00871  -2.06895
   D42        2.17195   0.00429   0.00000   0.02002   0.01992   2.19187
   D43       -0.02428  -0.00043   0.00000   0.01121   0.01136  -0.01292
         Item               Value     Threshold  Converged?
 Maximum Force            0.083736     0.000450     NO 
 RMS     Force            0.029600     0.000300     NO 
 Maximum Displacement     0.152692     0.001800     NO 
 RMS     Displacement     0.051023     0.001200     NO 
 Predicted change in Energy=-4.090800D-02
 GradGradGradGradGradGradGradGradGradGradGradGradGradGradGradGradGradGrad

                          Input orientation:                          
 ---------------------------------------------------------------------
 Center     Atomic      Atomic             Coordinates (Angstroms)
 Number     Number       Type             X           Y           Z
 ---------------------------------------------------------------------
      1          6           0        0.570528    1.324808    0.042326
      2          1           0        0.573212    2.401068    0.100739
      3          6           0        1.483694    0.850610   -0.906305
      4          1           0        2.002051    1.451971   -1.632556
      5          6           0        0.853954   -0.963396    0.315881
      6          1           0        1.102178   -1.973185    0.597310
      7          6           0        1.634474   -0.505788   -0.746954
      8          1           0        2.291225   -1.129934   -1.327535
      9          6           0       -1.290532    0.706560   -0.556732
     10          6           0       -1.209943   -0.785830   -0.401007
     11          1           0       -1.428105    0.983550   -1.587591
     12          1           0       -1.314417   -1.274626   -1.354855
     13          1           0        0.885823   -0.317970    1.180988
     14          1           0        0.849380    0.917157    0.998694
     15          1           0       -2.046181    1.133531    0.081399
     16          1           0       -1.906748   -1.168721    0.325188
 ---------------------------------------------------------------------
                    Distance matrix (angstroms):
                    1          2          3          4          5
     1  C    0.000000
     2  H    1.077848   0.000000
     3  C    1.399513   2.060834   0.000000
     4  H    2.206957   2.438582   1.075996   0.000000
     5  C    2.321861   3.383004   2.276166   3.308856   0.000000
     6  H    3.386357   4.434014   3.221837   4.184945   1.077261
     7  C    2.259652   3.208532   1.374025   2.179960   1.395792
     8  H    3.295918   4.178458   2.179930   2.615892   2.189589
     9  C    2.050523   2.603300   2.799872   3.543182   2.854650
    10  C    2.796679   3.686152   3.192013   4.103824   2.192061
    11  H    2.601464   2.977429   2.993392   3.462284   3.552689
    12  H    3.501741   4.380939   3.542210   4.302372   2.755006
    13  H    2.023532   2.942419   2.465730   3.506378   1.079814
    14  H    1.076372   1.756298   2.008932   2.922012   2.000683
    15  H    2.623981   2.910024   3.676360   4.407633   3.586483
    16  H    3.526271   4.352467   4.133929   5.097008   2.768342
                    6          7          8          9         10
     6  H    0.000000
     7  C    2.060010   0.000000
     8  H    2.414526   1.076083   0.000000
     9  C    3.773315   3.172008   4.098271   0.000000
    10  C    2.784305   2.879030   3.637999   1.502655   0.000000
    11  H    4.463004   3.507732   4.285774   1.076252   2.141561
    12  H    3.184159   3.107509   3.608647   2.136040   1.076876
    13  H    1.768396   2.076708   2.987830   2.967466   2.667178
    14  H    2.929009   2.385044   3.417725   2.653851   3.016644
    15  H    4.453090   4.113484   5.091312   1.077275   2.148478
    16  H    3.126475   3.758885   4.511759   2.161986   1.076802
                   11         12         13         14         15
    11  H    0.000000
    12  H    2.272983   0.000000
    13  H    3.835785   3.490952   0.000000
    14  H    3.446769   3.876226   1.249039   0.000000
    15  H    1.786068   2.897848   3.451463   3.045081   0.000000
    16  H    2.918920   1.784550   3.042141   3.521468   2.319318
                   16
    16  H    0.000000
 Stoichiometry    C6H10
 Framework group  C1[X(C6H10)]
 Deg. of freedom    42
 Full point group                 C1      NOp   1
 Largest Abelian subgroup         C1      NOp   1
 Largest concise Abelian subgroup C1      NOp   1
                         Standard orientation:                         
 ---------------------------------------------------------------------
 Center     Atomic      Atomic             Coordinates (Angstroms)
 Number     Number       Type             X           Y           Z
 ---------------------------------------------------------------------
      1          6           0       -0.329219    1.142075   -0.558382
      2          1           0       -0.386052    2.200029   -0.756523
      3          6           0       -1.255415    0.741468    0.411315
      4          1           0       -1.834895    1.400023    1.034433
      5          6           0       -0.480067   -1.174818   -0.541373
      6          1           0       -0.662717   -2.224950   -0.697425
      7          6           0       -1.327763   -0.630585    0.424783
      8          1           0       -1.974697   -1.212022    1.058314
      9          6           0        1.534831    0.713942    0.180984
     10          6           0        1.539516   -0.788245    0.218218
     11          1           0        1.613989    1.128160    1.171174
     12          1           0        1.629189   -1.143993    1.230672
     13          1           0       -0.509289   -0.648442   -1.483750
     14          1           0       -0.545606    0.599892   -1.462701
     15          1           0        2.293241    1.098486   -0.480424
     16          1           0        2.285541   -1.220205   -0.427041
 ---------------------------------------------------------------------
 Rotational constants (GHZ):      5.0554057      3.4025788      2.5052646
 Standard basis: 6-31+G(d) (6D, 7F)
 There are   134 symmetry adapted cartesian basis functions of A   symmetry.
 There are   134 symmetry adapted basis functions of A   symmetry.
   134 basis functions,   232 primitive gaussians,   134 cartesian basis functions
    23 alpha electrons       23 beta electrons
       nuclear repulsion energy       229.8174076298 Hartrees.
 NAtoms=   16 NActive=   16 NUniq=   16 SFac= 1.00D+00 NAtFMM=   60 NAOKFM=F Big=F
 Integral buffers will be    131072 words long.
 Raffenetti 2 integral format.
 Two-electron integral symmetry is turned on.
 One-electron integrals computed using PRISM.
 NBasis=   134 RedAO= T EigKep=  2.41D-05  NBF=   134
 NBsUse=   134 1.00D-06 EigRej= -1.00D+00 NBFU=   134
 Initial guess from the checkpoint file:  "/work/1952437.1.c2_smp.q/Gau-9455.chk"
 B after Tr=     0.000000    0.000000    0.000000
         Rot=    0.999837    0.007635    0.009032    0.013647 Ang=   2.07 deg.
 ExpMin= 4.38D-02 ExpMax= 3.05D+03 ExpMxC= 4.57D+02 IAcc=2 IRadAn=         4 AccDes= 0.00D+00
 Harris functional with IExCor= 1009 and IRadAn=       4 diagonalized for initial guess.
 HarFok:  IExCor= 1009 AccDes= 0.00D+00 IRadAn=         4 IDoV= 1 UseB2=F ITyADJ=14
 ICtDFT=  3500011 ScaDFX=  1.000000  1.000000  1.000000  1.000000
 FoFCou: FMM=F IPFlag=           0 FMFlag=      100000 FMFlg1=           0
         NFxFlg=           0 DoJE=T BraDBF=F KetDBF=T FulRan=T
         wScrn=  0.000000 ICntrl=     500 IOpCl=  0 I1Cent=   200000004 NGrid=           0
         NMat0=    1 NMatS0=      1 NMatT0=    0 NMatD0=    1 NMtDS0=    0 NMtDT0=    0
 Petite list used in FoFCou.
 Requested convergence on RMS density matrix=1.00D-08 within 128 cycles.
 Requested convergence on MAX density matrix=1.00D-06.
 Requested convergence on             energy=1.00D-06.
 No special actions if energy rises.
 SCF Done:  E(RM062X) =  -234.346007770     A.U. after   12 cycles
            NFock= 12  Conv=0.99D-08     -V/T= 2.0084
 Calling FoFJK, ICntrl=      2127 FMM=F ISym2X=0 I1Cent= 0 IOpClX= 0 NMat=1 NMatS=1 NMatT=0.
 ***** Axes restored to original set *****
 -------------------------------------------------------------------
 Center     Atomic                   Forces (Hartrees/Bohr)
 Number     Number              X              Y              Z
 -------------------------------------------------------------------
      1        6          -0.045810836    0.075583666   -0.020767858
      2        1          -0.010083894    0.012333116   -0.001688249
      3        6           0.015648066   -0.031191140   -0.011132825
      4        1          -0.001145478    0.004298732   -0.007255888
      5        6          -0.029954098   -0.078538973    0.000544021
      6        1          -0.008876528   -0.014664535    0.000871492
      7        6           0.010910444    0.030127515   -0.014010432
      8        1           0.000276262   -0.006001133   -0.005948057
      9        6           0.045237633   -0.027730025    0.027184579
     10        6           0.035511485    0.036803426    0.012956225
     11        1           0.009175432    0.012447381   -0.006392248
     12        1           0.012425926   -0.013317900   -0.003583700
     13        1          -0.014096849   -0.030895280    0.004605203
     14        1          -0.024415848    0.027403860    0.003923699
     15        1           0.001546646    0.011113597    0.008805296
     16        1           0.003651637   -0.007772306    0.011888743
 -------------------------------------------------------------------
 Cartesian Forces:  Max     0.078538973 RMS     0.024361201

 GradGradGradGradGradGradGradGradGradGradGradGradGradGradGradGradGradGrad
 Berny optimization.
 FormGI is forming the generalized inverse of G from B-inverse, IUseBI=4.
 Internal  Forces:  Max     0.062598309 RMS     0.024131129
 Search for a saddle point.
 Step number   3 out of a maximum of   99
 All quantities printed in internal units (Hartrees-Bohrs-Radians)
 Swapping is turned off.
 Update second derivatives using D2CorX and points    2    3
 ITU=  0  0  0
     Eigenvalues ---   -0.11281  -0.06164  -0.00846   0.00271   0.00602
     Eigenvalues ---    0.01439   0.01532   0.01767   0.02032   0.02142
     Eigenvalues ---    0.02739   0.02907   0.02966   0.03861   0.04253
     Eigenvalues ---    0.04520   0.04715   0.05146   0.05456   0.06172
     Eigenvalues ---    0.08065   0.08142   0.10817   0.10916   0.11529
     Eigenvalues ---    0.14788   0.23354   0.27865   0.29670   0.36974
     Eigenvalues ---    0.38812   0.39599   0.39714   0.39738   0.40073
     Eigenvalues ---    0.40154   0.40176   0.40240   0.40388   0.51674
     Eigenvalues ---    0.56597   1.15643
 Eigenvectors required to have negative eigenvalues:
                          R3        A15       A6        D16       D25
   1                   -0.40274   0.30686  -0.30357  -0.26641  -0.25161
                          D5        D18       D17       D24       R9
   1                   -0.23161  -0.21858  -0.21723  -0.20352   0.20172
 RFO step:  Lambda0=1.762011105D-03 Lambda=-1.29902748D-01.
 Linear search not attempted -- option 19 set.
 Maximum step size (   0.300) exceeded in Quadratic search.
    -- Step size scaled by   0.277
 Iteration  1 RMS(Cart)=  0.04701958 RMS(Int)=  0.00215788
 Iteration  2 RMS(Cart)=  0.00288497 RMS(Int)=  0.00032151
 Iteration  3 RMS(Cart)=  0.00000241 RMS(Int)=  0.00032151
 Iteration  4 RMS(Cart)=  0.00000000 RMS(Int)=  0.00032151
 Variable       Old X    -DE/DX   Delta X   Delta X   Delta X     New X
                                 (Linear)    (Quad)   (Total)
    R1        2.03684   0.01220   0.00000   0.00563   0.00563   2.04247
    R2        2.64470   0.05201   0.00000   0.04288   0.04232   2.68701
    R3        3.87493  -0.05471   0.00000  -0.21903  -0.21884   3.65609
    R4        2.03405  -0.01321   0.00000   0.01650   0.01650   2.05055
    R5        2.03334   0.00675   0.00000   0.00427   0.00427   2.03761
    R6        2.59653   0.06260   0.00000  -0.01990  -0.02052   2.57601
    R7        2.03573   0.01193   0.00000   0.00478   0.00478   2.04051
    R8        2.63766   0.05082   0.00000   0.03363   0.03375   2.67141
    R9        4.14239  -0.04904   0.00000  -0.16590  -0.16582   3.97658
   R10        2.04055  -0.01520   0.00000  -0.00558  -0.00558   2.03498
   R11        2.03350   0.00686   0.00000   0.00350   0.00350   2.03701
   R12        2.83961   0.02245   0.00000   0.02981   0.03042   2.87003
   R13        2.03382   0.00815   0.00000   0.00453   0.00453   2.03835
   R14        2.03575   0.00854   0.00000   0.00519   0.00519   2.04095
   R15        2.03500   0.00803   0.00000   0.00427   0.00427   2.03927
   R16        2.03486   0.00841   0.00000   0.00442   0.00442   2.03928
    A1        1.95351   0.03318   0.00000   0.00870   0.00855   1.96207
    A2        1.89564   0.01986   0.00000   0.00083   0.00103   1.89667
    A3        1.90643  -0.01088   0.00000  -0.01546  -0.01564   1.89080
    A4        1.86713  -0.04877   0.00000  -0.02781  -0.02791   1.83921
    A5        1.88063   0.01777   0.00000  -0.00403  -0.00351   1.87711
    A6        1.96115  -0.01118   0.00000   0.03855   0.03833   1.99949
    A7        2.19256  -0.02235   0.00000  -0.01393  -0.01365   2.17892
    A8        1.90443   0.04134   0.00000   0.02093   0.02034   1.92476
    A9        2.18601  -0.01861   0.00000  -0.00684  -0.00656   2.17944
   A10        1.95777   0.03381   0.00000   0.01506   0.01449   1.97226
   A11        1.95877   0.01818   0.00000   0.00832   0.00857   1.96734
   A12        1.92216  -0.01138   0.00000   0.00875   0.00859   1.93076
   A13        1.82442  -0.04856   0.00000   0.00785   0.00757   1.83199
   A14        1.97968   0.01021   0.00000   0.00394   0.00419   1.98387
   A15        1.81459  -0.00610   0.00000  -0.04851  -0.04888   1.76570
   A16        1.92899   0.04166   0.00000   0.00738   0.00741   1.93641
   A17        2.18582  -0.01853   0.00000  -0.00387  -0.00389   2.18193
   A18        2.16755  -0.02231   0.00000  -0.00312  -0.00317   2.16438
   A19        1.79312   0.03706   0.00000   0.04785   0.04853   1.84165
   A20        1.89467  -0.01674   0.00000  -0.01974  -0.01985   1.87482
   A21        1.92205  -0.01852   0.00000  -0.01527  -0.01596   1.90609
   A22        1.94091  -0.02521   0.00000  -0.00676  -0.00657   1.93434
   A23        1.94966   0.01666   0.00000  -0.00326  -0.00348   1.94618
   A24        1.95595   0.00749   0.00000  -0.00015  -0.00035   1.95560
   A25        1.73639   0.03947   0.00000  -0.01636  -0.01574   1.72065
   A26        1.92224  -0.02059   0.00000  -0.00156  -0.00204   1.92020
   A27        1.93897  -0.01650   0.00000   0.01059   0.01068   1.94965
   A28        1.93243  -0.02505   0.00000  -0.00162  -0.00142   1.93101
   A29        1.96962   0.01469   0.00000   0.00974   0.00918   1.97880
   A30        1.95323   0.00913   0.00000  -0.00208  -0.00198   1.95125
    D1       -0.19190   0.00648   0.00000   0.01641   0.01642  -0.17548
    D2        2.92952   0.02644   0.00000   0.02467   0.02505   2.95457
    D3        1.88256   0.01901   0.00000   0.00492   0.00503   1.88760
    D4       -1.27920   0.03897   0.00000   0.01318   0.01367  -1.26554
    D5       -2.28824  -0.01166   0.00000   0.03288   0.03288  -2.25536
    D6        0.83318   0.00829   0.00000   0.04114   0.04151   0.87469
    D7       -3.00355  -0.02261   0.00000  -0.00644  -0.00626  -3.00980
    D8        1.22286  -0.00512   0.00000  -0.01407  -0.01399   1.20887
    D9       -0.92444   0.00838   0.00000   0.00880   0.00869  -0.91576
   D10        1.16803  -0.04521   0.00000  -0.00127  -0.00115   1.16688
   D11       -0.88875  -0.02772   0.00000  -0.00889  -0.00888  -0.89763
   D12       -3.03605  -0.01422   0.00000   0.01398   0.01380  -3.02225
   D13       -0.89246  -0.02989   0.00000  -0.00064  -0.00026  -0.89272
   D14       -2.94924  -0.01240   0.00000  -0.00827  -0.00800  -2.95723
   D15        1.18665   0.00110   0.00000   0.01460   0.01468   1.20133
   D16       -0.01900   0.00175   0.00000   0.02029   0.02012   0.00112
   D17       -3.11843  -0.01887   0.00000   0.01010   0.00959  -3.10885
   D18        3.10252   0.02156   0.00000   0.02841   0.02865   3.13117
   D19        0.00308   0.00094   0.00000   0.01823   0.01812   0.02120
   D20       -2.93378  -0.02720   0.00000  -0.00267  -0.00315  -2.93693
   D21        0.16619  -0.00675   0.00000   0.00736   0.00723   0.17342
   D22        1.22277  -0.03705   0.00000  -0.02623  -0.02704   1.19572
   D23       -1.96045  -0.01661   0.00000  -0.01619  -0.01666  -1.97712
   D24       -0.74224  -0.00651   0.00000   0.02482   0.02445  -0.71779
   D25        2.35773   0.01393   0.00000   0.03485   0.03483   2.39256
   D26        3.03710   0.02260   0.00000   0.00707   0.00657   3.04367
   D27       -1.21596   0.00621   0.00000  -0.00337  -0.00338  -1.21934
   D28        0.95826  -0.00864   0.00000   0.00035   0.00022   0.95848
   D29       -1.12010   0.04271   0.00000   0.03507   0.03427  -1.08582
   D30        0.91002   0.02631   0.00000   0.02463   0.02433   0.93435
   D31        3.08424   0.01147   0.00000   0.02836   0.02793   3.11217
   D32        0.96017   0.03060   0.00000   0.02172   0.02126   0.98143
   D33        2.99029   0.01421   0.00000   0.01128   0.01131   3.00160
   D34       -1.11868  -0.00064   0.00000   0.01500   0.01491  -1.10376
   D35       -0.00923  -0.00237   0.00000  -0.02448  -0.02487  -0.03410
   D36       -2.03159   0.01038   0.00000  -0.01391  -0.01429  -2.04588
   D37        2.04680   0.00681   0.00000  -0.01742  -0.01768   2.02912
   D38        2.01459  -0.01280   0.00000  -0.02443  -0.02445   1.99014
   D39       -0.00778  -0.00005   0.00000  -0.01387  -0.01387  -0.02165
[...]
 ! D15   D(14,1,9,15)           52.2465         -DE/DX =    0.0                 !
 ! D16   D(1,3,7,5)              0.012          -DE/DX =    0.0                 !
 ! D17   D(1,3,7,8)            166.5186         -DE/DX =    0.0                 !
 ! D18   D(4,3,7,5)           -166.484          -DE/DX =    0.0                 !
 ! D19   D(4,3,7,8)              0.0226         -DE/DX =    0.0                 !
 ! D20   D(6,5,7,3)            172.4672         -DE/DX =    0.0                 !
 ! D21   D(6,5,7,8)              6.0504         -DE/DX =    0.0                 !
 ! D22   D(10,5,7,3)            59.1278         -DE/DX =    0.0                 !
 ! D23   D(10,5,7,8)          -107.289          -DE/DX =    0.0                 !
 ! D24   D(13,5,7,3)           -31.1058         -DE/DX =    0.0                 !
 ! D25   D(13,5,7,8)           162.4774         -DE/DX =    0.0                 !
 ! D26   D(6,5,10,9)          -175.9042         -DE/DX =    0.0                 !
 ! D27   D(6,5,10,12)          -53.507          -DE/DX =    0.0                 !
 ! D28   D(6,5,10,16)           62.0865         -DE/DX =    0.0                 !
 ! D29   D(7,5,10,9)           -50.6796         -DE/DX =    0.0                 !
 ! D30   D(7,5,10,12)           71.7176         -DE/DX =    0.0                 !
 ! D31   D(7,5,10,16)         -172.6889         -DE/DX =    0.0                 !
 ! D32   D(13,5,10,9)           69.7514         -DE/DX =    0.0                 !
 ! D33   D(13,5,10,12)        -167.8514         -DE/DX =    0.0                 !
 ! D34   D(13,5,10,16)         -52.2579         -DE/DX =    0.0                 !
 ! D35   D(1,9,10,5)             0.0062         -DE/DX =    0.0                 !
 ! D36   D(1,9,10,12)         -102.4684         -DE/DX =    0.0                 !
 ! D37   D(1,9,10,16)          101.5859         -DE/DX =    0.0                 !
 ! D38   D(11,9,10,5)          102.4855         -DE/DX =    0.0                 !
 ! D39   D(11,9,10,12)           0.0109         -DE/DX =    0.0                 !
 ! D40   D(11,9,10,16)        -155.9348         -DE/DX =    0.0                 !
 ! D41   D(15,9,10,5)         -101.5809         -DE/DX =    0.0                 !
 ! D42   D(15,9,10,12)         155.9445         -DE/DX =    0.0                 !
 ! D43   D(15,9,10,16)          -0.0011         -DE/DX =    0.0                 !
 --------------------------------------------------------------------------------
 GradGradGradGradGradGradGradGradGradGradGradGradGradGradGradGradGradGrad

 1\1\ UCLA-HOFFMAN2-N9938\Freq\RM062X\6-31+G(d)\C6H10\WITTIG\23-Mar-201
 7\0\\#N Geom=AllCheck Guess=TCheck SCRF=Check GenChk RM062X/6-31+G(d) 
 Freq\\Title Card Required\\0,1\C,0.6609430125,1.6129483281,-0.01041178
 81\H,0.4943538721,2.66576632,-0.2226659744\C,1.5348799928,0.8816693542
 ,-0.7825647591\H,1.974961903,1.3467319393,-1.6621906112\C,0.9065191996
 ,-1.2104338963,0.2861817489\H,0.9262692111,-2.2970284454,0.298732859\C
 ,1.6565291761,-0.5158473471,-0.635677769\H,2.1856787708,-1.0701365676,
 -1.4079836753\C,-1.3199336605,0.6442718809,-0.5298107169\C,-1.20093980
 57,-0.7230430678,-0.38627257\H,-1.2972854806,1.0921911745,-1.516681849
 7\H,-1.0842089504,-1.3541382237,-1.2598609601\H,0.6007923458,-0.747501
 9875,1.2179793575\H,0.4222430427,1.3069428248,1.0022190698\H,-1.811521
 0804,1.2313000142,0.2406641785\H,-1.5986906927,-1.2138871596,0.4973342
 605\\Version=EM64L-G09RevD.01\State=1-A\HF=-234.4211417\RMSD=1.179e-09
 \RMSF=1.927e-05\ZeroPoint=0.1418397\Thermal=0.1481684\Dipole=-0.183075
 3,-0.0156689,0.0029442\DipoleDeriv=0.1154372,0.0077096,-0.0285775,-0.0
 276247,0.0294017,-0.0357414,-0.043843,-0.0091282,-0.0004443,0.0977328,
 -0.0067524,0.0253643,0.0270374,-0.0937067,0.013004,0.0089504,0.0123741
 ,0.06585,-0.2771909,-0.1501586,-0.1354809,0.0617586,-0.0266324,-0.0675
 215,-0.0434143,-0.1974848,0.0247325,0.0874576,0.0056699,0.0737541,-0.0
 157727,0.0275399,0.0587256,0.1151349,0.0853112,-0.0354204,0.1111291,-0
 .000628,-0.032808,0.0311596,0.0402928,0.0221401,-0.0503309,-0.0073277,
 -0.0068628,0.0948534,0.0446853,0.0189311,0.0081988,-0.0885228,0.024336
 5,0.0099824,0.0227841,0.0635224,-0.2805319,0.068656,-0.1684355,-0.1219
 367,0.029133,0.0396393,-0.0580431,0.1872261,-0.027721,0.0801095,0.0227
 16,0.0819299,0.0526633,0.0063019,-0.0527679,0.1218438,-0.0722585,-0.00
 68412,-0.2255389,0.0574832,-0.0423145,-0.0571138,0.0291409,0.036056,-0
 .1152904,-0.0499687,0.0477158,-0.2151373,-0.1070484,-0.0185777,-0.0113
 747,0.0196485,-0.0371844,-0.1271742,0.0329827,0.0468168,0.0608408,0.00
 9698,0.0186375,0.0450526,0.0173031,0.0338292,0.015674,0.0449449,-0.037
 5302,0.0679358,0.0053726,0.0255109,-0.0296494,-0.0072134,-0.0369901,0.
 0318276,-0.047803,-0.0200861,0.0520052,0.022632,0.0473543,0.0264852,-0
 .0092662,-0.0686455,0.020372,-0.0197838,-0.0293729,0.0575881,-0.003495
 7,0.0380271,-0.0119226,0.0035674,0.0687217,0.0211873,0.0160511,-0.0477
 447,0.0748689,0.0837598,0.0431935,0.07416,0.0168509,-0.0270058,0.04286
 06,-0.0325078,-0.0118907,0.0984407,-0.0602991,0.0534915,-0.0511207,0.0
 061613,0.0294041,0.0502629,0.0345885,-0.0247232\Polar=90.3258091,-0.14
 62669,86.9935558,-3.8755428,-3.2428052,59.6816179\PG=C01 [X(C6H10)]\NI
 mag=1\\0.24679713,-0.19198699,0.64876625,-0.21926067,-0.03374278,0.603
 12504,-0.04463253,0.04269269,-0.00037576,0.04239292,0.04954663,-0.3283
 3392,0.06038101,-0.05286508,0.34486022,0.00118935,0.06162227,-0.065672
 67,-0.00055094,-0.06396373,0.06106302,-0.17731838,0.13415424,0.1454964
 7,0.00123135,-0.00046015,0.00162059,0.37498152,0.06974733,-0.19780877,
 -0.08137244,0.02296292,-0.01063792,-0.01814367,-0.09094820,0.65915449,
 0.13282776,-0.10123672,-0.21147482,-0.00591231,0.00534840,0.00611128,-
 0.27845445,-0.05498696,0.54303276,-0.00043319,-0.00899876,0.01740657,-
 0.00315041,-0.00130873,-0.00251483,-0.09298582,-0.04075612,0.10066080,
 0.08816204,0.00732788,0.00934775,-0.01676507,-0.00154137,0.00040259,-0
 .00054285,-0.04318915,-0.10812906,0.10176572,0.04628914,0.11434786,0.0
 0833109,0.00815355,-0.01250995,-0.00297413,-0.00125028,-0.00067404,0.1
 0219779,0.10476019,-0.23709017,-0.11464655,-0.10913533,0.24763299,-0.0
 5543358,0.00304049,0.00941597,0.00004043,-0.00007929,0.00131613,0.0244
 7901,-0.06664525,-0.01662687,0.00574810,0.00225977,0.00206776,0.202056
 86,-0.00948697,-0.00585916,0.00621151,-0.00165579,-0.00009846,-0.00001
 966,-0.01102788,-0.03606559,0.02095094,0.00195826,-0.00551081,0.001192
 90,0.06340007,0.69625884,0.01164913,-0.00440428,-0.00578500,-0.0003049
 4,-0.00050055,-0.00129665,-0.00523673,0.02956952,0.01046802,0.00209998
 ,-0.00066961,0.00229264,-0.24746517,-0.02354450,0.60041034,-0.00027307
 ,0.00151394,-0.00069488,0.00058805,0.00014134,-0.00006150,0.00182605,0
 .00093377,0.00740536,0.00028407,-0.00124449,0.00025033,-0.03779339,0.0
 1086470,0.00839935,0.03385491,0.00031447,0.00027919,0.00011329,-0.0000
 3656,-0.00006313,0.00009648,-0.00236175,0.00060727,0.00190012,0.000162
 46,-0.00069922,0.00000115,0.00450120,-0.34827515,0.00015534,-0.0047444
 3,0.36674363,0.00127419,-0.00005441,-0.00136190,-0.00003284,-0.0000202
 4,0.00033080,0.00478664,0.00282198,0.00051767,0.00000479,0.00086954,-0
 .00001802,0.01153370,-0.00067573,-0.05257589,-0.01123786,-0.00166258,0
 .04772602,0.00985933,0.01893376,-0.00411458,0.00132155,0.00355786,0.00
 457789,-0.07630745,0.04039361,0.02218880,0.00425476,-0.01407484,0.0020
 3907,-0.14802708,-0.09726563,0.15398997,0.00479206,0.00284592,-0.00216
 221,0.36306459,0.07083886,-0.03034069,-0.02013026,0.00085673,0.0003659
 7,-0.00189445,0.00696003,-0.31089895,0.05964158,-0.00050784,-0.0101711
 7,-0.00263282,-0.03722026,-0.18525971,0.09932867,-0.02120836,-0.010893
 96,0.02134497,-0.02243595,0.67807191,-0.02802525,-0.01458747,0.0193607
 9,0.00762091,-0.00048123,0.00126306,0.03195845,-0.01227956,-0.11259828
 ,-0.00332024,0.02635034,0.00003926,0.12509328,0.11557598,-0.25334803,-
 0.00057049,-0.00266024,0.00280389,-0.28864185,-0.02342246,0.53606607,0
 .00604656,0.00049192,0.00196227,0.00006596,0.00000315,0.00015776,0.001
 32894,0.00265400,0.00071974,-0.00224720,-0.00044692,-0.00177779,-0.000
 86948,0.01025117,0.01264932,-0.00342145,0.00005959,-0.00268986,-0.1119
 1765,0.06604443,0.10755987,0.10938623,0.00022631,-0.00550192,0.0026752
 4,0.00141403,-0.00062786,-0.00070181,0.01652826,-0.01167442,-0.0237543
 7,-0.00047651,0.00087180,0.00004993,-0.00714939,0.01102642,0.01445470,
 0.00017950,0.00088538,-0.00023071,0.06878225,-0.13324177,-0.10323329,-
 0.07621048,0.13930485,0.00231200,0.00083975,0.00197989,-0.00004430,0.0
 0017119,0.00012872,-0.00186640,0.00546314,0.00446858,-0.00172102,-0.00
 058818,-0.00016922,0.01153509,-0.01134724,-0.01375316,-0.00330278,0.00
 038371,-0.00088555,0.10904849,-0.10596227,-0.19304415,-0.12102373,0.10
 885674,0.20145141,0.04722297,0.01363300,-0.00626298,0.00101263,0.00053
 265,-0.00079659,-0.03267966,0.03714404,0.01143072,-0.00135018,0.000190
 42,-0.00066002,0.02659342,0.00732261,-0.00419422,-0.00137379,-0.000313
 98,-0.00122470,-0.01042472,-0.03024139,0.01493274,-0.00081712,-0.00061
 073,-0.00050185,0.17255209,0.07533205,-0.00307618,-0.00507459,-0.00563
 393,-0.00104053,-0.00393466,-0.03122868,0.05009690,0.01946413,-0.00227
 513,0.00014048,-0.00152846,0.06556582,0.00348775,-0.00679719,-0.000783
 33,-0.00051273,-0.00133079,-0.01260468,-0.05053597,0.02722343,-0.00246
 055,-0.00075880,-0.00103048,-0.17727920,0.66876019,0.00636632,0.002899
 83,-0.01341747,0.00148576,0.00082166,0.00049173,-0.00114940,0.00433258
 ,0.00060747,-0.00013191,0.00005760,-0.00036897,0.00342004,0.00281895,-
 0.00319965,-0.00037970,0.00006406,-0.00039311,0.00221062,-0.00509765,0
 .00440243,-0.00021178,-0.00003257,-0.00001107,-0.12616159,-0.05214332,
 0.62883865,0.03821063,-0.00216601,-0.00419477,-0.00150100,-0.00016414,
 -0.00145131,-0.01917836,0.03879104,0.01118197,-0.00131977,0.00035580,-
 0.00078570,0.06072984,-0.00365170,-0.00506096,0.00009077,-0.00062171,-
 0.00136656,-0.02950942,-0.04683543,0.02423485,-0.00163620,-0.00068310,
 -0.00081040,-0.07920698,-0.01470977,0.00936670,0.13227546,-0.05740067,
 -0.00735427,0.00579149,0.00049489,-0.00015657,0.00105545,0.01832419,-0
 .04376456,-0.01370957,0.00224727,-0.00003575,0.00097451,-0.06127432,-0
 .01626710,0.00337370,0.00596955,0.00056814,0.00383085,0.01719297,0.040
 23208,-0.02521259,0.00186406,0.00068312,0.00120205,0.07420526,-0.40803
 606,0.04544889,0.05169504,0.72280094,0.01679481,-0.00133852,-0.0039641
 8,-0.00049496,-0.00018210,-0.00062158,-0.00296044,0.01627041,0.0063805
 6,-0.00071756,0.00000669,-0.00023446,0.02119236,-0.00121273,-0.0137296
 4,0.00037394,-0.00057690,-0.00019469,-0.00457531,-0.01367941,0.0073018
 9,-0.00053845,-0.00031400,-0.00062248,0.00229643,0.01941351,-0.1099061
 1,-0.15618489,0.01045054,0.61509725,-0.01445647,-0.00009115,-0.0066233
 4,0.00081552,0.00004775,0.00042685,0.00282678,-0.00642046,-0.00378197,
 0.00007440,-0.00007410,0.00026884,-0.00582039,0.00017308,0.00078729,-0
 .00010902,0.00009066,0.00009434,0.00161812,0.00502701,-0.00191863,0.00
 014057,0.00012236,0.00007075,-0.02786424,0.01469973,0.01241611,0.00734
 333,-0.00556707,-0.00112458,0.03201834,-0.00387129,0.00053920,-0.00284
 666,-0.00001586,-0.00011898,-0.00003430,0.00128735,-0.00138081,-0.0007
 9166,0.00000169,0.00008295,0.00008675,-0.00129358,-0.00072605,0.000231
 92,0.00015305,0.00007045,0.00015350,0.00026981,0.00112241,-0.00042051,
 0.00010779,-0.00001720,0.00000360,0.00643461,-0.09838446,0.10777410,-0
 .00223814,-0.01113049,0.03006511,-0.00090244,0.10607747,-0.00156642,-0
 .00019244,-0.00164335,-0.00014998,-0.00032951,-0.00002636,0.00153427,-
 0.00099257,0.00115189,-0.00021571,0.00001505,-0.00008121,-0.00054246,-
 0.00041072,0.00036487,-0.00000713,-0.00000654,0.00007305,0.00013204,0.
 00130737,-0.00056016,0.00004438,-0.00003765,0.00001621,0.01368045,0.11
 288633,-0.30431230,0.00132542,-0.00169277,0.00173815,-0.01345966,-0.11
 921513,0.31473988,-0.00585862,-0.00090071,0.00090940,-0.00006461,-0.00
 008714,0.00013757,0.00252338,-0.00505441,-0.00088208,0.00017289,-0.000
 07282,0.00009011,-0.01452771,-0.00398867,-0.00656638,0.00078933,0.0001
 9159,0.00039861,0.00188546,0.00600994,-0.00519936,0.00006076,0.0001282
 9,0.00026118,0.00539537,0.00907318,0.00227256,-0.02760668,0.00713254,0
 .03494559,-0.00482291,-0.00153893,-0.00136266,0.03518898,0.00024802,-0
 .00059953,0.00011692,-0.00017202,-0.00000095,-0.00012216,0.00005214,-0
 .00004634,-0.00002848,-0.00006480,-0.00003835,0.00001913,0.00080048,0.
 00097597,0.00110853,0.00012954,-0.00001105,0.00010759,-0.00043574,-0.0
 0002950,0.00035996,-0.00004704,0.00006926,-0.00007109,0.00575951,-0.01
 438611,-0.02630211,0.01556158,-0.15145348,-0.13587790,0.00014304,0.001
 39731,0.00020010,-0.02138851,0.15947638,-0.00078500,0.00049625,0.00028
 054,0.00002536,0.00001918,0.00010001,0.00040724,-0.00146671,-0.0002972
 3,0.00005473,0.00005501,0.00000508,-0.00201850,-0.00071027,-0.00201083
 ,-0.00022065,0.00029853,-0.00010831,0.00147711,0.00160622,0.00074273,-
 0.00020194,-0.00008193,-0.00005428,-0.00010649,0.00546180,0.00694047,0
 .03532958,-0.14084641,-0.25150344,-0.00147365,-0.00056570,0.00091345,-
 0.03503841,0.14736292,0.25817288,0.00706687,-0.00038414,-0.00136591,-0
 .00057612,-0.00024553,-0.00039626,-0.00595370,0.00743576,-0.00055271,-
 0.00055896,0.00013671,-0.00030890,-0.04458809,0.03498399,0.07482422,0.
 00114026,-0.00048049,0.00072968,-0.00750183,0.00071967,0.02172424,0.00
 377495,-0.00215170,0.00611546,-0.00362123,-0.00786068,-0.00134639,-0.0
 1433712,0.00600594,-0.01077402,0.00083012,0.00000277,0.00027302,-0.000
 37527,0.00019052,-0.00001524,0.06336814,-0.00115630,-0.00067670,0.0029
 9119,-0.00009669,0.00029685,-0.00012683,0.00137272,-0.00260021,-0.0009
 6469,-0.00025860,0.00006882,-0.00049089,0.03225920,-0.11309985,-0.1094
 9801,0.00793869,-0.00898682,-0.02526868,-0.00256385,0.01457589,0.01182
 310,-0.00244954,-0.00113380,0.00166930,0.00090796,0.00075139,0.0007389
 1,0.00269447,-0.00067201,0.00117443,-0.00009377,-0.00005310,-0.0000894
 3,0.00008261,-0.00014484,0.00029803,-0.03856783,0.11366862,0.00323259,
 -0.00066972,0.00019163,-0.00045028,-0.00013713,0.00050816,-0.00210768,
 0.00152081,0.00066456,-0.00026576,0.00013293,-0.00007472,0.08791700,-0
 .10883846,-0.26962846,0.00003910,0.00172652,0.00364759,0.00454581,-0.0
 1432298,-0.01061102,0.00332644,0.00242123,0.00031245,-0.00238694,-0.00
 457759,-0.00029283,-0.00682879,0.00376018,-0.00540769,0.00040919,0.000
 01059,0.00010434,0.00001023,0.00000399,0.00023699,-0.08861365,0.118031
 60,0.27878097,-0.03754790,-0.01094025,0.06275438,0.00216148,0.00163388
 ,-0.00405381,-0.00761812,0.00019036,0.02395334,0.00267832,0.00412588,0
 .00562179,0.00653894,0.00143569,-0.00103982,-0.00059207,-0.00000339,-0
 .00044028,-0.00432680,-0.00770753,0.00080927,-0.00054891,-0.00031935,-
 0.00033795,-0.01216787,-0.00996325,-0.00866248,-0.00458427,0.00643397,
 -0.00266031,-0.00032290,-0.00021107,0.00007103,0.00077666,0.00019392,0
 .00023077,0.00102909,0.00050307,0.00017312,0.05431117,-0.00556109,-0.0
 7969598,0.08074565,-0.00625765,-0.00467490,0.02665296,-0.00061350,0.01
 458383,-0.01317482,0.00385554,-0.00065102,-0.00030253,0.00307425,-0.00
 055252,-0.00297032,-0.00016042,0.00035935,0.00008429,-0.00205324,-0.00
 421385,0.00184354,0.00008762,0.00011553,0.00039131,-0.00586474,-0.0043
 0471,-0.00337679,-0.00245308,0.00235417,-0.00156486,-0.00010564,-0.000
 24043,-0.00019732,0.00031863,0.00003407,0.00015645,0.00009116,-0.00202
 647,0.00093081,0.01484792,0.07875417,0.07491584,0.08228265,-0.31008034
 ,0.00163448,0.00009260,-0.00168547,0.00225896,0.00958824,-0.01050364,0
 .00300425,-0.00152487,0.00092752,0.00260253,0.00140907,0.00059879,-0.0
 0046345,0.00008779,0.00046187,-0.00151505,-0.00097649,0.00064954,-0.00
 027106,-0.00022323,-0.00013024,-0.00510259,-0.00530664,-0.00393444,-0.
 00276336,0.00364688,-0.00093301,0.00002290,0.00009454,0.00028048,0.000
 35828,0.00007934,0.00007019,0.00032916,-0.00035487,0.00044597,-0.07583
 448,-0.08926130,0.32274730,-0.01352120,0.00096551,0.00422737,0.0002225
 6,-0.00022123,0.00036364,0.00185232,-0.00474890,-0.00254048,0.00035474
 ,-0.00012293,0.00018065,-0.00549452,-0.00072498,0.00083697,0.00003691,
 0.00003672,0.00000673,0.00009443,0.00516598,-0.00271288,0.00031447,0.0
 0000253,0.00010660,-0.08990664,0.08928705,0.10369920,0.00609719,-0.007
 38375,0.00329254,0.00158375,-0.00108481,-0.00080921,0.00625235,-0.0006
 7259,0.00124339,0.00035316,0.00012321,0.00021184,-0.00018514,0.0007981
 4,0.00058562,0.09668361,-0.00431674,0.00101621,0.00051943,0.00002201,-
 0.00018876,0.00018290,0.00079096,-0.00157527,-0.00035483,0.00013407,0.
 00001424,0.00012213,-0.00169514,-0.00090099,-0.00000834,0.00016360,0.0
 0008731,0.00011289,-0.00030194,0.00153277,-0.00071613,0.00008687,-0.00
 001851,0.00005778,0.07881503,-0.13173934,-0.10578347,0.01424810,-0.015
 69400,-0.02419315,-0.00705108,0.00783807,0.00899522,0.00233767,-0.0049
 5500,0.00187731,0.00026385,-0.00001028,0.00010020,-0.00009602,0.000206
 42,0.00040447,-0.08164374,0.14299713,-0.00608226,0.00044925,0.00055796
 ,0.00052593,0.00008736,-0.00001071,0.00076488,-0.00231359,-0.00061967,
 0.00017795,0.00001561,0.00025560,-0.00303680,0.00021825,0.00038015,-0.
 00004541,0.00003573,-0.00004490,0.00035103,0.00245934,-0.00131585,0.00
 010386,0.00008186,0.00004603,0.10309334,-0.10580870,-0.20619086,-0.000
 38579,0.00063527,0.00651660,0.01206857,-0.01538864,-0.01451549,0.00156
 648,0.00088940,0.00152863,0.00031159,-0.00006806,0.00007457,-0.0009183
 2,-0.00010400,0.00101826,-0.10645112,0.11904015,0.21184756,-0.00572854
 ,0.00004248,0.00072045,0.00007224,-0.00003198,0.00003547,0.00099215,-0
 .00567950,-0.00161763,0.00031620,0.00008101,0.00010565,-0.01363237,-0.
 00258796,0.00463199,0.00016040,0.00035970,0.00032562,0.00112466,0.0045
 3410,-0.00354491,0.00033957,0.00021773,0.00015886,0.00663596,0.0108413
 7,-0.00319408,-0.06586743,-0.05993986,0.10113486,0.00614499,0.00289904
 ,0.00105261,0.00021061,-0.00029804,0.00109169,-0.00005025,-0.00069535,
 0.00078778,0.00039833,-0.00000392,0.00023796,-0.00473799,-0.00175751,-
 0.00204391,0.07362147,0.00019851,-0.00070148,0.00038606,-0.00016830,0.
 00001635,-0.00012592,0.00035941,0.00013942,-0.00006879,-0.00000195,-0.
 00004110,-0.00001994,0.00045594,0.00086640,0.00017042,0.00015334,-0.00
 015865,-0.00008248,-0.00024031,-0.00031547,-0.00016287,-0.00003607,0.0
 0001792,-0.00003930,-0.01063506,-0.01046181,0.02777932,-0.04982296,-0.
 11207418,0.10155886,0.00000208,-0.00507634,-0.00023998,0.00775674,0.00
 971216,-0.01396069,-0.00014000,0.00004251,-0.00009296,-0.00012383,-0.0
 0004766,-0.00003819,0.00022380,0.00139000,-0.00022925,0.05201868,0.116
 69193,-0.00317350,-0.00051722,0.00041381,-0.00000201,-0.00005663,-0.00
 000931,0.00074981,-0.00277136,-0.00081898,0.00012452,-0.00004258,0.000
 06769,-0.00640406,-0.00161830,0.00081250,0.00051577,0.00004354,0.00002
 149,0.00044817,0.00243064,-0.00115218,0.00019097,0.00006985,0.00026686
 ,0.00196429,0.00308320,0.00074606,0.09839402,0.10129151,-0.24991716,0.
 00181698,0.00084251,0.00175656,0.00809888,0.01215387,-0.01501686,-0.00
 093430,0.00013489,0.00104750,0.00033375,0.00014693,0.00006722,-0.00224
 087,-0.00035654,0.00047213,-0.09988242,-0.11483430,0.26124268\\0.00007
 101,0.00000814,0.00000460,0.00000050,-0.00000413,-0.00000446,0.0000007
 6,-0.00002308,0.00000072,-0.00001173,-0.00000256,-0.00001074,0.0000433
 0,0.00001116,0.00000827,0.00000194,0.00000293,-0.00001109,-0.00001199,
 0.00001515,-0.00000392,0.00000490,0.00000481,-0.00000389,-0.00004459,-
 0.00001664,-0.00001586,-0.00007250,0.00000178,-0.00001376,0.00000073,0
 .00000342,0.00000813,0.00001022,-0.00000135,0.00000865,-0.00000338,0.0
 0001316,0.00000056,-0.00000419,-0.00001250,0.00000606,0.00000735,-0.00
 000769,0.00001320,0.00000767,0.00000740,0.00001352\\\@


 ONE THORN OF EXPERIENCE IS WORTH A WHOLE WILDERNESS OF
 WARNING....  LOWELL - AMONG MY BOOKS
 Job cpu time:       0 days  0 hours 19 minutes  9.4 seconds.
 File lengths (MBytes):  RWF=     35 Int=      0 D2E=      0 Chk=      3 Scr=      1
 Normal termination of Gaussian 09 at Thu Mar 23 03:37:57 2017.
