 Entering Gaussian System, Link 0=/u/local/apps/gaussian/09d01/g09/g09
 Input=/u/home/w/wittig/Bickel/Alkenes/Butadiene/IRC/Ethylene-reverse.com
 Output=/u/home/w/wittig/Bickel/Alkenes/Butadiene/IRC/Ethylene-reverse.log
 Initial command:
 /u/local/apps/gaussian/09d01/g09/l1.exe "/work/1959001.1.msa_smp.q/Gau-4879.inp" -scrdir="/work/1959001.1.msa_smp.q/"
 Entering Link 1 = /u/local/apps/gaussian/09d01/g09/l1.exe PID=      4880.
  
 Copyright (c) 1988,1990,1992,1993,1995,1998,2003,2009,2013,
            Gaussian, Inc.  All Rights Reserved.
  
 This is part of the Gaussian(R) 09 program.  It is based on
 the Gaussian(R) 03 system (copyright 2003, Gaussian, Inc.),
 the Gaussian(R) 98 system (copyright 1998, Gaussian, Inc.),
 the Gaussian(R) 94 system (copyright 1995, Gaussian, Inc.),
 the Gaussian 92(TM) system (copyright 1992, Gaussian, Inc.),
 the Gaussian 90(TM) system (copyright 1990, Gaussian, Inc.),
 the Gaussian 88(TM) system (copyright 1988, Gaussian, Inc.),
 the Gaussian 86(TM) system (copyright 1986, Carnegie Mellon
 University), and the Gaussian 82(TM) system (copyright 1983,
 Carnegie Mellon University). Gaussian is a federally registered
 trademark of Gaussian, Inc.
  
 This software contains proprietary and confidential information,
 including trade secrets, belonging to Gaussian, Inc.
  
 This software is provided under written license and may be
 used, copied, transmitted, or stored only in accord with that
 written license.
  
 The following legend is applicable only to US Government
 contracts under FAR:
  
                    RESTRICTED RIGHTS LEGEND
  
 Use, reproduction and disclosure by the US Government is
 subject to restrictions as set forth in subparagraphs (a)
 and (c) of the Commercial Computer Software - Restricted
 Rights clause in FAR 52.227-19.
  
 Gaussian, Inc.
 340 Quinnipiac St., Bldg. 40, Wallingford CT 06492
  
  
 ---------------------------------------------------------------
 Warning -- This program may not be used in any manner that
 competes with the business of Gaussian, Inc. or will provide
 assistance to any competitor of Gaussian, Inc.  The licensee
 of this program is prohibited from giving any competitor of
 Gaussian, Inc. access to this program.  By using this program,
 the user acknowledges that Gaussian, Inc. is engaged in the
 business of creating and licensing software in the field of
 computational chemistry and represents and warrants to the
 licensee that it is not a competitor of Gaussian, Inc. and that
 it will not use this program in any manner prohibited above.
 ---------------------------------------------------------------
  

 Cite this work as:
 Gaussian 09, Revision D.01,
 M. J. Frisch, G. W. Trucks, H. B. Schlegel, G. E. Scuseria, 
 M. A. Robb, J. R. Cheeseman, G. Scalmani, V. Barone, B. Mennucci, 
 G. A. Petersson, H. Nakatsuji, M. Caricato, X. Li, H. P. Hratchian, 
 A. F. Izmaylov, J. Bloino, G. Zheng, J. L. Sonnenberg, M. Hada, 
 M. Ehara, K. Toyota, R. Fukuda, J. Hasegawa, M. Ishida, T. Nakajima, 
 Y. Honda, O. Kitao, H. Nakai, T. Vreven, J. A. Montgomery, Jr., 
 J. E. Peralta, F. Ogliaro, M. Bearpark, J. J. Heyd, E. Brothers, 
 K. N. Kudin, V. N. Staroverov, T. Keith, R. Kobayashi, J. Normand, 
 K. Raghavachari, A. Rendell, J. C. Burant, S. S. Iyengar, J. Tomasi, 
 M. Cossi, N. Rega, J. M. Millam, M. Klene, J. E. Knox, J. B. Cross, 
 V. Bakken, C. Adamo, J. Jaramillo, R. Gomperts, R. E. Stratmann, 
 O. Yazyev, A. J. Austin, R. Cammi, C. Pomelli, J. W. Ochterski, 
 R. L. Martin, K. Morokuma, V. G. Zakrzewski, G. A. Voth, 
 P. Salvador, J. J. Dannenberg, S. Dapprich, A. D. Daniels, 
 O. Farkas, J. B. Foresman, J. V. Ortiz, J. Cioslowski, 
 and D. J. Fox, Gaussian, Inc., Wallingford CT, 2013.
 
 ******************************************
 Gaussian 09:  EM64L-G09RevD.01 24-Apr-2013
                23-Mar-2017 
 ******************************************
 Default route:  MaxDisk=121GB
 ----------------------------------------------------------------------
 # irc=(reverse,maxpoints=25,calcfc) 6-31+g(d) geom=connectivity rm062x
 ----------------------------------------------------------------------
 1/10=4,14=-1,18=10,22=2,26=3,38=1,42=25,44=3,57=2/1,23;
 2/12=2,17=6,18=5,29=1,40=1/2;
 3/5=1,6=6,7=11,11=2,16=1,25=1,30=1,71=2,74=-55,116=1,140=1/1,2,3;
 4//1;
 5/5=2,38=5/2;
 8/6=4,10=90,11=11/1;
 11/6=1,8=1,9=11,15=111,16=1/1,2,10;
 10/6=1,13=1/2;
 6/7=2,8=2,9=2,10=2,28=1/1;
 7/10=1,18=20,25=1/1,2,3,16;
 1/10=4,14=-1,18=10,22=2,26=3,42=25,44=3/23(2);
 2/29=1/2;
 99/5=20/99;
 2/29=1/2;
 3/5=1,6=6,7=11,11=2,16=1,25=1,30=1,71=2,74=-55,116=1,140=1/1,2,3;
 4/5=5,16=3,69=1/1;
 5/5=2,38=5/2;
 8/6=4,10=90,11=11/1;
 11/6=1,8=1,9=11,15=111,16=1/1,2,10;
 10/6=1,13=1/2;
 7/10=1,18=20,25=1/1,2,3,16;
 1/14=-1,18=10,22=2,26=3,42=25,44=3/23(-8);
 2/29=1/2;
 6/7=2,8=2,9=2,10=2,19=2,28=1/1;
 99/5=20,9=1/99;
 -------------------
 Title Card Required
 -------------------
 Symbolic Z-matrix:
 Charge =  0 Multiplicity = 1
 C                    -0.44912   1.4247   -0.5003 
 H                    -0.38144   2.50433  -0.39521 
 C                    -1.30981   0.70487   0.29709 
 H                    -1.84169   1.21911   1.09481 
 C                    -0.44815  -1.42482  -0.50033 
 H                    -0.37998  -2.50444  -0.39535 
 C                    -1.30942  -0.7056    0.29698 
 H                    -1.84134  -1.22021   1.09444 
 C                     1.5652    0.69036   0.23132 
 C                     1.5656   -0.68961   0.2314 
 H                     1.44297   1.23489   1.16063 
 H                     1.44351  -1.2341    1.16074 
 H                    -0.12083  -1.03665  -1.45857 
 H                    -0.12168   1.03679  -1.45861 
 H                     2.05701   1.23435  -0.56998 
 H                     2.05769  -1.23346  -0.56983 
 
 IRC-IRC-IRC-IRC-IRC-IRC-IRC-IRC-IRC-IRC-IRC-IRC-IRC-IRC-IRC-IRC-IRC-IRC
 ------------------------------------------------------------------------
 INPUT DATA FOR L123
 ------------------------------------------------------------------------
 GENERAL PARAMETERS:
 Rxn path following direction = Reverse
 Maximum points per path      =  25
 Step size                    =   0.100 bohr
 Integration scheme           = HPC                                 
    Redo corrector integration= Yes                                 
    DWI Weight Power          =  2
    DWI will use Hessian update vectors when possible.
    Max correction cycles     =  20
 Initial Hessian              = CalcFC
 Hessian evaluation           = All updating
 Hessian updating method      = Bofill                              
 ------------------------------------------------------------------------
 IRC-IRC-IRC-IRC-IRC-IRC-IRC-IRC-IRC-IRC-IRC-IRC-IRC-IRC-IRC-IRC-IRC-IRC
                          Input orientation:                          
 ---------------------------------------------------------------------
 Center     Atomic      Atomic             Coordinates (Angstroms)
 Number     Number       Type             X           Y           Z
 ---------------------------------------------------------------------
      1          6           0       -0.449119    1.424695   -0.500299
      2          1           0       -0.381441    2.504328   -0.395213
      3          6           0       -1.309811    0.704873    0.297085
      4          1           0       -1.841692    1.219108    1.094808
      5          6           0       -0.448146   -1.424824   -0.500333
      6          1           0       -0.379979   -2.504438   -0.395348
      7          6           0       -1.309418   -0.705597    0.296984
      8          1           0       -1.841335   -1.220211    1.094436
      9          6           0        1.565196    0.690361    0.231321
     10          6           0        1.565596   -0.689608    0.231397
     11          1           0        1.442967    1.234886    1.160628
     12          1           0        1.443505   -1.234099    1.160744
     13          1           0       -0.120833   -1.036654   -1.458567
     14          1           0       -0.121682    1.036791   -1.458607
     15          1           0        2.057011    1.234352   -0.569980
     16          1           0        2.057692   -1.233464   -0.569825
 ---------------------------------------------------------------------
                    Distance matrix (angstroms):
                    1          2          3          4          5
     1  C    0.000000
     2  H    1.086844   0.000000
     3  C    1.376501   2.139903   0.000000
     4  H    2.127414   2.450364   1.087978   0.000000
     5  C    2.849519   3.931124   2.431862   3.387746   0.000000
     6  H    3.931142   5.008766   3.412291   4.268719   1.086846
     7  C    2.431855   3.412315   1.410470   2.150425   1.376514
     8  H    3.387768   4.268786   2.150403   2.439319   2.127470
     9  C    2.265387   2.733572   2.875796   3.554162   3.010460
    10  C    3.010769   3.792733   3.196382   3.999786   2.265199
    11  H    2.524816   2.713041   2.933327   3.285356   3.661852
    12  H    3.662004   4.441539   3.476531   4.100621   2.524658
    13  H    2.661633   3.706372   2.743884   3.817007   1.084446
    14  H    1.084453   1.830832   2.145757   3.084089   2.661657
    15  H    2.514314   2.754892   3.516766   4.239297   3.654022
    16  H    3.654414   4.466648   3.981050   4.898092   2.514095
                    6          7          8          9         10
     6  H    0.000000
     7  C    2.139862   0.000000
     8  H    2.450358   1.087977   0.000000
     9  C    3.792514   3.196313   3.999963   0.000000
    10  C    2.733437   2.875806   3.554371   1.379969   0.000000
    11  H    4.441479   3.476633   4.101039   1.084001   2.140604
    12  H    2.712983   2.933254   3.285539   2.140603   1.084003
    13  H    1.830842   2.145761   3.084095   2.946353   2.412563
    14  H    3.706419   2.743854   3.816974   2.412764   2.946774
    15  H    4.466315   3.980939   4.898190   1.086228   2.141335
    16  H    2.754643   3.516736   4.239381   2.141376   1.086229
                   11         12         13         14         15
    11  H    0.000000
    12  H    2.468985   0.000000
    13  H    3.803360   3.057275   0.000000
    14  H    3.057411   3.803650   2.073445   0.000000
    15  H    1.836315   3.076531   3.269566   2.361227   0.000000
    16  H    3.076541   1.836327   2.361052   3.270117   2.467816
                   16
    16  H    0.000000
 Symmetry turned off by external request.
 Stoichiometry    C6H10
 Framework group  C1[X(C6H10)]
 Deg. of freedom    42
 Full point group                 C1      NOp   1
 Rotational constants (GHZ):      4.3652894      3.4992795      2.2898018
 Standard basis: 6-31+G(d) (6D, 7F)
   134 basis functions,   232 primitive gaussians,   134 cartesian basis functions
    23 alpha electrons       23 beta electrons
       nuclear repulsion energy       224.9199146350 Hartrees.
 NAtoms=   16 NActive=   16 NUniq=   16 SFac= 1.00D+00 NAtFMM=   60 NAOKFM=F Big=F
 Integral buffers will be    131072 words long.
 Raffenetti 2 integral format.
 Two-electron integral symmetry is turned off.
 One-electron integrals computed using PRISM.
 NBasis=   134 RedAO= T EigKep=  2.85D-05  NBF=   134
 NBsUse=   134 1.00D-06 EigRej= -1.00D+00 NBFU=   134
 ExpMin= 4.38D-02 ExpMax= 3.05D+03 ExpMxC= 4.57D+02 IAcc=2 IRadAn=         4 AccDes= 0.00D+00
 Harris functional with IExCor= 1009 and IRadAn=       4 diagonalized for initial guess.
 HarFok:  IExCor= 1009 AccDes= 0.00D+00 IRadAn=         4 IDoV= 1 UseB2=F ITyADJ=14
 ICtDFT=  3500011 ScaDFX=  1.000000  1.000000  1.000000  1.000000
 FoFCou: FMM=F IPFlag=           0 FMFlag=      100000 FMFlg1=           0
         NFxFlg=           0 DoJE=T BraDBF=F KetDBF=T FulRan=T
         wScrn=  0.000000 ICntrl=     500 IOpCl=  0 I1Cent=   200000004 NGrid=           0
         NMat0=    1 NMatS0=      1 NMatT0=    0 NMatD0=    1 NMtDS0=    0 NMtDT0=    0
 Symmetry not used in FoFCou.
 Requested convergence on RMS density matrix=1.00D-08 within 128 cycles.
 Requested convergence on MAX density matrix=1.00D-06.
 Requested convergence on             energy=1.00D-06.
 No special actions if energy rises.
 SCF Done:  E(RM062X) =  -234.421141658     A.U. after   13 cycles
            NFock= 13  Conv=0.24D-08     -V/T= 2.0093
 DoSCS=F DFT=T ScalE2(SS,OS)=  1.000000  1.000000
 Range of M.O.s used for correlation:     1   134
 NBasis=   134 NAE=    23 NBE=    23 NFC=     0 NFV=     0
 NROrb=    134 NOA=    23 NOB=    23 NVA=   111 NVB=   111

 **** Warning!!: The largest alpha MO coefficient is  0.62976864D+02

 Symmetrizing basis deriv contribution to polar:
 IMax=3 JMax=2 DiffMx= 0.00D+00
 G2DrvN: will do    17 centers at a time, making    1 passes.
 Calling FoFCou, ICntrl=  3107 FMM=F I1Cent=   0 AccDes= 0.00D+00.
 End of G2Drv F.D. properties file   721 does not exist.
 End of G2Drv F.D. properties file   722 does not exist.
 End of G2Drv F.D. properties file   788 does not exist.
          IDoAtm=1111111111111111
          Differentiating once with respect to nuclear coordinates.
          There are    51 degrees of freedom in the 1st order CPHF.  IDoFFX=6 NUNeed=     0.
     45 vectors produced by pass  0 Test12= 5.01D-15 1.96D-09 XBig12= 7.08D-02 9.33D-02.
 AX will form    45 AO Fock derivatives at one time.
     45 vectors produced by pass  1 Test12= 5.01D-15 1.96D-09 XBig12= 6.22D-03 1.84D-02.
     45 vectors produced by pass  2 Test12= 5.01D-15 1.96D-09 XBig12= 1.01D-04 2.06D-03.
     45 vectors produced by pass  3 Test12= 5.01D-15 1.96D-09 XBig12= 4.97D-07 1.71D-04.
     45 vectors produced by pass  4 Test12= 5.01D-15 1.96D-09 XBig12= 1.71D-09 4.70D-06.
     45 vectors produced by pass  5 Test12= 5.01D-15 1.96D-09 XBig12= 5.08D-12 2.67D-07.
     29 vectors produced by pass  6 Test12= 5.01D-15 1.96D-09 XBig12= 1.86D-14 2.85D-08.
      6 vectors produced by pass  7 Test12= 5.01D-15 1.96D-09 XBig12= 4.57D-16 5.83D-09.
      1 vectors produced by pass  8 Test12= 5.01D-15 1.96D-09 XBig12= 9.06D-17 2.48D-09.
 InvSVY:  IOpt=1 It=  1 EMax= 4.44D-16
 Solved reduced A of dimension   306 with    51 vectors.
 End of Minotr F.D. properties file   721 does not exist.
 End of Minotr F.D. properties file   722 does not exist.
 End of Minotr F.D. properties file   788 does not exist.

 **********************************************************************

            Population analysis using the SCF density.

 **********************************************************************

 Alpha  occ. eigenvalues --  -10.55577 -10.55575 -10.54964 -10.54881 -10.54470
 Alpha  occ. eigenvalues --  -10.54402  -0.91268  -0.84449  -0.81423  -0.70942
 Alpha  occ. eigenvalues --   -0.66451  -0.59785  -0.56758  -0.53734  -0.49623
 Alpha  occ. eigenvalues --   -0.47220  -0.47209  -0.42988  -0.41778  -0.41080
 Alpha  occ. eigenvalues --   -0.40363  -0.27930  -0.27790
 Alpha virt. eigenvalues --    0.00191   0.02339   0.03088   0.03668   0.03944
 Alpha virt. eigenvalues --    0.05564   0.05956   0.06988   0.07536   0.08486
 Alpha virt. eigenvalues --    0.09349   0.10618   0.11084   0.11577   0.12218
 Alpha virt. eigenvalues --    0.12326   0.13227   0.13888   0.14998   0.16244
 Alpha virt. eigenvalues --    0.16472   0.17005   0.18738   0.19406   0.21195
 Alpha virt. eigenvalues --    0.22036   0.23991   0.24471   0.24504   0.29964
 Alpha virt. eigenvalues --    0.30164   0.33780   0.34379   0.36000   0.36546
 Alpha virt. eigenvalues --    0.37201   0.37249   0.39549   0.43994   0.48030
 Alpha virt. eigenvalues --    0.48963   0.58948   0.64264   0.67822   0.71108
 Alpha virt. eigenvalues --    0.73291   0.76187   0.77962   0.78684   0.78981
 Alpha virt. eigenvalues --    0.81619   0.84292   0.85242   0.86736   0.88211
 Alpha virt. eigenvalues --    0.94292   0.96849   1.00227   1.00657   1.01740
 Alpha virt. eigenvalues --    1.04206   1.05228   1.10603   1.12153   1.12969
 Alpha virt. eigenvalues --    1.13607   1.17391   1.17526   1.20860   1.21049
 Alpha virt. eigenvalues --    1.26496   1.31126   1.32958   1.44691   1.46175
 Alpha virt. eigenvalues --    1.54373   1.58067   1.65829   1.66435   1.78482
 Alpha virt. eigenvalues --    1.79905   1.87716   1.97872   2.00189   2.01916
 Alpha virt. eigenvalues --    2.05227   2.05764   2.12053   2.14156   2.17155
 Alpha virt. eigenvalues --    2.19537   2.26354   2.26648   2.30848   2.31898
 Alpha virt. eigenvalues --    2.34717   2.46839   2.58069   2.61075   2.65256
 Alpha virt. eigenvalues --    2.65695   2.72102   2.76115   2.90457   3.07842
 Alpha virt. eigenvalues --    4.21968   4.29826   4.34994   4.38352   4.53657
 Alpha virt. eigenvalues --    4.58483
          Condensed to atoms (all electrons):
               1          2          3          4          5          6
     1  C    5.887853   0.361468   0.374612  -0.022128  -0.323468   0.007507
     2  H    0.361468   0.479985  -0.033578  -0.004708   0.007504  -0.000006
     3  C    0.374612  -0.033578   5.253733   0.333604  -0.136362   0.019835
     4  H   -0.022128  -0.004708   0.333604   0.508806  -0.005255  -0.000107
     5  C   -0.323468   0.007504  -0.136362  -0.005255   5.887986   0.361455
     6  H    0.007507  -0.000006   0.019835  -0.000107   0.361455   0.479993
     7  C   -0.136438   0.019825   0.424629  -0.006170   0.374574  -0.033586
     8  H   -0.005232  -0.000107  -0.006198  -0.005794  -0.022166  -0.004708
     9  C    0.420878  -0.023569  -0.087790   0.005903  -0.292632   0.010700
    10  C   -0.292562   0.010698  -0.116824  -0.004184   0.420789  -0.023569
    11  H   -0.026706  -0.000658  -0.003085   0.000189   0.007305  -0.000025
    12  H    0.007305  -0.000025   0.000476   0.000003  -0.026723  -0.000659
    13  H   -0.023544   0.000038   0.039502  -0.000013   0.412575  -0.029898
    14  H    0.412573  -0.029900  -0.078771   0.003759  -0.023546   0.000038
    15  H   -0.039117   0.000302   0.000773  -0.000030   0.012698  -0.000028
    16  H    0.012706  -0.000028   0.004869   0.000004  -0.039143   0.000302
               7          8          9         10         11         12
     1  C   -0.136438  -0.005232   0.420878  -0.292562  -0.026706   0.007305
     2  H    0.019825  -0.000107  -0.023569   0.010698  -0.000658  -0.000025
     3  C    0.424629  -0.006198  -0.087790  -0.116824  -0.003085   0.000476
     4  H   -0.006170  -0.005794   0.005903  -0.004184   0.000189   0.000003
     5  C    0.374574  -0.022166  -0.292632   0.420789   0.007305  -0.026723
     6  H   -0.033586  -0.004708   0.010700  -0.023569  -0.000025  -0.000659
     7  C    5.253904   0.333655  -0.116876  -0.087809   0.000479  -0.003073
     8  H    0.333655   0.508799  -0.004182   0.005895   0.000003   0.000190
     9  C   -0.116876  -0.004182   5.919425  -0.034860   0.382971  -0.029868
    10  C   -0.087809   0.005895  -0.034860   5.919358  -0.029846   0.382998
    11  H    0.000479   0.000003   0.382971  -0.029846   0.472976  -0.005433
    12  H   -0.003073   0.000190  -0.029868   0.382998  -0.005433   0.472972
    13  H   -0.078729   0.003759  -0.017113  -0.024761  -0.000027   0.000977
    14  H    0.039532  -0.000013  -0.024725  -0.017114   0.000976  -0.000027
    15  H    0.004879   0.000004   0.399394  -0.047036  -0.027947   0.003088
    16  H    0.000788  -0.000030  -0.047038   0.399408   0.003088  -0.027947
              13         14         15         16
     1  C   -0.023544   0.412573  -0.039117   0.012706
     2  H    0.000038  -0.029900   0.000302  -0.000028
     3  C    0.039502  -0.078771   0.000773   0.004869
     4  H   -0.000013   0.003759  -0.000030   0.000004
     5  C    0.412575  -0.023546   0.012698  -0.039143
     6  H   -0.029898   0.000038  -0.000028   0.000302
     7  C   -0.078729   0.039532   0.004879   0.000788
     8  H    0.003759  -0.000013   0.000004  -0.000030
     9  C   -0.017113  -0.024725   0.399394  -0.047038
    10  C   -0.024761  -0.017114  -0.047036   0.399408
    11  H   -0.000027   0.000976  -0.027947   0.003088
    12  H    0.000977  -0.000027   0.003088  -0.027947
    13  H    0.502269   0.005636   0.000385  -0.003358
    14  H    0.005636   0.502261  -0.003355   0.000385
    15  H    0.000385  -0.003355   0.482597  -0.005434
    16  H   -0.003358   0.000385  -0.005434   0.482590
 Mulliken charges:
               1
     1  C   -0.615707
     2  H    0.212758
     3  C    0.010575
     4  H    0.196122
     5  C   -0.615589
     6  H    0.212755
     7  C    0.010414
     8  H    0.196124
     9  C   -0.460618
    10  C   -0.460582
    11  H    0.225740
    12  H    0.225747
    13  H    0.212301
    14  H    0.212292
    15  H    0.218827
    16  H    0.218840
 Sum of Mulliken charges =   0.00000
 Mulliken charges with hydrogens summed into heavy atoms:
               1
     1  C   -0.190657
     3  C    0.206696
     5  C   -0.190532
     7  C    0.206538
     9  C   -0.016051
    10  C   -0.015995
 APT charges:
               1
     1  C   -0.935048
     2  H    0.567781
     3  C   -0.479297
     4  H    0.531917
     5  C   -0.934824
     6  H    0.567769
     7  C   -0.479659
     8  H    0.531993
     9  C   -0.967242
    10  C   -0.967205
    11  H    0.431675
    12  H    0.431623
    13  H    0.353818
    14  H    0.353816
    15  H    0.496427
    16  H    0.496454
 Sum of APT charges =   0.00000
 APT charges with hydrogens summed into heavy atoms:
               1
     1  C   -0.013451
     3  C    0.052620
     5  C   -0.013236
     7  C    0.052334
     9  C   -0.039140
    10  C   -0.039127
 Electronic spatial extent (au):  <R**2>=            612.1314
 Charge=              0.0000 electrons
 Dipole moment (field-independent basis, Debye):
    X=              0.4665    Y=              0.0000    Z=              0.0229  Tot=              0.4671
 Quadrupole moment (field-independent basis, Debye-Ang):
   XX=            -43.4181   YY=            -36.3569   ZZ=            -37.7338
   XY=             -0.0018   XZ=             -3.4932   YZ=             -0.0007
 Traceless Quadrupole moment (field-independent basis, Debye-Ang):
   XX=             -4.2485   YY=              2.8127   ZZ=              1.4358
   XY=             -0.0018   XZ=             -3.4932   YZ=             -0.0007
 Octapole moment (field-independent basis, Debye-Ang**2):
  XXX=             -1.6404  YYY=              0.0015  ZZZ=             -0.0476  XYY=              1.8996
  XXY=             -0.0038  XXZ=              2.0696  XZZ=              1.2344  YZZ=              0.0014
  YYZ=              1.7279  XYZ=              0.0005
 Hexadecapole moment (field-independent basis, Debye-Ang**3):
 XXXX=           -462.2620 YYYY=           -320.6310 ZZZZ=           -111.9721 XXXY=             -0.0076
 XXXZ=            -24.0852 YYYX=             -0.0084 YYYZ=             -0.0042 ZZZX=             -5.6237
 ZZZY=             -0.0009 XXYY=           -128.5356 XXZZ=            -87.5056 YYZZ=            -75.5372
 XXYZ=             -0.0026 YYXZ=             -6.6293 ZZXY=             -0.0013
 N-N= 2.249199146350D+02 E-N=-9.914187481593D+02  KE= 2.322529984410D+02
  Exact polarizability:   0.000   0.000   0.000   0.000   0.000   0.000
 Approx polarizability: 114.012  -0.002 113.414  -5.134  -0.003  71.897
 Calling FoFJK, ICntrl=    100147 FMM=F ISym2X=0 I1Cent= 0 IOpClX= 0 NMat=1 NMatS=1 NMatT=0.
 -------------------------------------------------------------------
 Center     Atomic                   Forces (Hartrees/Bohr)
 Number     Number              X              Y              Z
 -------------------------------------------------------------------
      1        6           0.000071099   -0.000001089    0.000009482
      2        1           0.000000444    0.000003268   -0.000004875
      3        6          -0.000001159    0.000023322   -0.000001886
      4        1          -0.000011142    0.000000426   -0.000011621
      5        6           0.000043494   -0.000006222    0.000011867
      6        1           0.000002861   -0.000003998   -0.000010571
      7        6          -0.000010379   -0.000016974   -0.000002878
      8        1           0.000005608   -0.000004613   -0.000003217
      9        6          -0.000044748    0.000010395   -0.000020207
     10        6          -0.000071242   -0.000008817   -0.000017801
     11        1           0.000000480   -0.000002451    0.000008582
     12        1           0.000009471    0.000002899    0.000009374
     13        1          -0.000002441   -0.000013296    0.000001955
     14        1          -0.000005645    0.000012684    0.000004540
     15        1           0.000005874    0.000009719    0.000012622
     16        1           0.000007425   -0.000005254    0.000014632
 -------------------------------------------------------------------
 Cartesian Forces:  Max     0.000071242 RMS     0.000019313
 IRC-IRC-IRC-IRC-IRC-IRC-IRC-IRC-IRC-IRC-IRC-IRC-IRC-IRC-IRC-IRC-IRC-IRC
          ******** Start new reaction path calculation ********
 Supplied step size of   0.1000 bohr.
    Integration on MW PES will use step size of   0.2951 sqrt(amu)*bohr.
 Point Number:   0          Path Number:   1
 Calculating another point on the path.
 IRC-IRC-IRC-IRC-IRC-IRC-IRC-IRC-IRC-IRC-IRC-IRC-IRC-IRC-IRC-IRC-IRC-IRC
                          Input orientation:                          
 ---------------------------------------------------------------------
 Center     Atomic      Atomic             Coordinates (Angstroms)
 Number     Number       Type             X           Y           Z
 ---------------------------------------------------------------------
      1          6           0       -0.440605    1.431034   -0.510396
      2          1           0       -0.366471    2.509782   -0.402476
      3          6           0       -1.282404    0.708781    0.291740
      4          1           0       -1.809191    1.219167    1.095356
      5          6           0       -0.439626   -1.431158   -0.510429
      6          1           0       -0.365008   -2.509884   -0.402614
      7          6           0       -1.282012   -0.709489    0.291636
      8          1           0       -1.808852   -1.220253    1.094974
      9          6           0        1.613999    0.685131    0.234132
     10          6           0        1.614401   -0.684356    0.234210
     11          1           0        1.465517    1.236272    1.155916
     12          1           0        1.466067   -1.235474    1.156033
     13          1           0       -0.084998   -1.035280   -1.455745
     14          1           0       -0.085863    1.035439   -1.455796
     15          1           0        2.081464    1.236779   -0.576817
     16          1           0        2.082150   -1.235880   -0.576662
 ---------------------------------------------------------------------
                    Distance matrix (angstroms):
                    1          2          3          4          5
     1  C    0.000000
     2  H    1.086664   0.000000
     3  C    1.368830   2.136462   0.000000
     4  H    2.120461   2.447576   1.088024   0.000000
     5  C    2.862192   3.943096   2.435793   3.387989   0.000000
     6  H    3.943116   5.019666   3.418120   4.270292   1.086666
     7  C    2.435788   3.418145   1.418270   2.154901   1.368842
     8  H    3.388014   4.270361   2.154880   2.439420   2.120515
     9  C    2.309131   2.767106   2.897072   3.570032   3.041451
    10  C    3.041769   3.812051   3.214905   4.010729   2.308945
    11  H    2.539257   2.721506   2.928501   3.275313   3.677153
    12  H    3.677315   4.451301   3.475805   4.093440   2.539105
    13  H    2.665117   3.708917   2.743944   3.816213   1.084482
    14  H    1.084490   1.833551   2.142965   3.084151   2.665139
    15  H    2.530411   2.764655   3.514083   4.234816   3.671266
    16  H    3.671663   4.478400   3.981965   4.895450   2.530192
                    6          7          8          9         10
     6  H    0.000000
     7  C    2.136422   0.000000
     8  H    2.447571   1.088022   0.000000
     9  C    3.811829   3.214833   4.010916   0.000000
    10  C    2.766976   2.897091   3.570261   1.369487   0.000000
    11  H    4.451238   3.475900   4.093864   1.084199   2.135537
    12  H    2.721459   2.928443   3.275523   2.135535   1.084201
    13  H    1.833562   2.142971   3.084162   2.949931   2.422200
    14  H    3.708966   2.743915   3.816185   2.422417   2.950375
    15  H    4.478064   3.981852   4.895555   1.086498   2.136977
    16  H    2.764410   3.514059   4.234915   2.137016   1.086499
                   11         12         13         14         15
    11  H    0.000000
    12  H    2.471746   0.000000
    13  H    3.792732   3.044218   0.000000
    14  H    3.044365   3.793044   2.070719   0.000000
    15  H    1.838955   3.081156   3.260112   2.347435   0.000000
    16  H    3.081168   1.838964   2.347245   3.260682   2.472659
                   16
    16  H    0.000000
 Symmetry turned off by external request.
 Stoichiometry    C6H10
 Framework group  C1[X(C6H10)]
 Deg. of freedom    42
 Full point group                 C1      NOp   1
 Rotational constants (GHZ):      4.3419390      3.4478275      2.2645884
 Standard basis: 6-31+G(d) (6D, 7F)
   134 basis functions,   232 primitive gaussians,   134 cartesian basis functions
    23 alpha electrons       23 beta electrons
       nuclear repulsion energy       224.3485306275 Hartrees.
 NAtoms=   16 NActive=   16 NUniq=   16 SFac= 1.00D+00 NAtFMM=   60 NAOKFM=F Big=F
 Integral buffers will be    131072 words long.
 Raffenetti 2 integral format.
 Two-electron integral symmetry is turned off.
 One-electron integrals computed using PRISM.
 NBasis=   134 RedAO= T EigKep=  2.84D-05  NBF=   134
 NBsUse=   134 1.00D-06 EigRej= -1.00D+00 NBFU=   134
 Initial guess from the checkpoint file:  "/work/1959001.1.msa_smp.q/Gau-4880.chk"
 B after Tr=     0.052474    0.000014   -0.007497
         Rot=    1.000000    0.000000   -0.000051    0.000000 Ang=  -0.01 deg.
 ExpMin= 4.38D-02 ExpMax= 3.05D+03 ExpMxC= 4.57D+02 IAcc=2 IRadAn=         4 AccDes= 0.00D+00
 Harris functional with IExCor= 1009 and IRadAn=       4 diagonalized for initial guess.
 HarFok:  IExCor= 1009 AccDes= 0.00D+00 IRadAn=         4 IDoV= 1 UseB2=F ITyADJ=14
 ICtDFT=  3500011 ScaDFX=  1.000000  1.000000  1.000000  1.000000
 FoFCou: FMM=F IPFlag=           0 FMFlag=      100000 FMFlg1=           0
         NFxFlg=           0 DoJE=T BraDBF=F KetDBF=T FulRan=T
         wScrn=  0.000000 ICntrl=     500 IOpCl=  0 I1Cent=   200000004 NGrid=           0
         NMat0=    1 NMatS0=      1 NMatT0=    0 NMatD0=    1 NMtDS0=    0 NMtDT0=    0
 Symmetry not used in FoFCou.
 Requested convergence on RMS density matrix=1.00D-08 within 128 cycles.
 Requested convergence on MAX density matrix=1.00D-06.
 Requested convergence on             energy=1.00D-06.
 No special actions if energy rises.
 SCF Done:  E(RM062X) =  -234.421512965     A.U. after   11 cycles
            NFock= 11  Conv=0.71D-08     -V/T= 2.0092
 DoSCS=F DFT=T ScalE2(SS,OS)=  1.000000  1.000000
 Range of M.O.s used for correlation:     1   134
 NBasis=   134 NAE=    23 NBE=    23 NFC=     0 NFV=     0
 NROrb=    134 NOA=    23 NOB=    23 NVA=   111 NVB=   111

 **** Warning!!: The largest alpha MO coefficient is  0.63121849D+02

 Symmetrizing basis deriv contribution to polar:
 IMax=3 JMax=2 DiffMx= 0.00D+00
 Calling FoFJK, ICntrl=      2147 FMM=F ISym2X=0 I1Cent= 0 IOpClX= 0 NMat=1 NMatS=1 NMatT=0.
 -------------------------------------------------------------------
 Center     Atomic                   Forces (Hartrees/Bohr)
 Number     Number              X              Y              Z
 -------------------------------------------------------------------
      1        6          -0.003483933    0.001329203   -0.001610937
      2        1          -0.000257488    0.000089746   -0.000079921
      3        6          -0.000286767    0.000609579   -0.000032951
      4        1           0.000026177   -0.000007420    0.000023080
      5        6          -0.003509383   -0.001337977   -0.001608717
      6        1          -0.000255107   -0.000090631   -0.000085636
      7        6          -0.000296470   -0.000603168   -0.000034389
      8        1           0.000042562    0.000003185    0.000031341
      9        6           0.004166679   -0.000093647    0.001392149
     10        6           0.004140861    0.000097080    0.001394788
     11        1          -0.000025561   -0.000111566   -0.000169092
     12        1          -0.000016438    0.000111899   -0.000168165
     13        1          -0.000028645   -0.000125009    0.000331722
     14        1          -0.000032078    0.000124296    0.000333730
     15        1          -0.000093039   -0.000090169    0.000140469
     16        1          -0.000091370    0.000094597    0.000142530
 -------------------------------------------------------------------
 Cartesian Forces:  Max     0.004166679 RMS     0.001233962
 IRC-IRC-IRC-IRC-IRC-IRC-IRC-IRC-IRC-IRC-IRC-IRC-IRC-IRC-IRC-IRC-IRC-IRC
 Pt  1 Step number   1 out of a maximum of  20
 Modified Bulirsch-Stoer Extrapolation Cycles:
    EPS =    0.000010000000000
 Maximum DWI energy   std dev =  0.000007937 at pt    42
 Maximum DWI gradient std dev =  0.163281300 at pt     1
 CORRECTOR INTEGRATION CONVERGENCE:
   Recorrection delta-x convergence threshold:    0.010000
   Delta-x Convergence Met
 Point Number:   1          Path Number:   1
   CHANGE IN THE REACTION COORDINATE =    0.29498
   NET REACTION COORDINATE UP TO THIS POINT =    0.29498
  # OF POINTS ALONG THE PATH =   1
  # OF STEPS =   1

 Calculating another point on the path.
 IRC-IRC-IRC-IRC-IRC-IRC-IRC-IRC-IRC-IRC-IRC-IRC-IRC-IRC-IRC-IRC-IRC-IRC
                          Input orientation:                          
 ---------------------------------------------------------------------
 Center     Atomic      Atomic             Coordinates (Angstroms)
 Number     Number       Type             X           Y           Z
 ---------------------------------------------------------------------
      1          6           0       -0.459799    1.437757   -0.516712
      2          1           0       -0.381542    2.515823   -0.406595
      3          6           0       -1.283285    0.712443    0.290662
      4          1           0       -1.806661    1.219281    1.098769
      5          6           0       -0.458885   -1.437913   -0.516773
      6          1           0       -0.380067   -2.515953   -0.406773
      7          6           0       -1.282884   -0.713154    0.290586
      8          1           0       -1.806044   -1.220370    1.098599
      9          6           0        1.635079    0.680789    0.241193
     10          6           0        1.635432   -0.679981    0.241266
     11          1           0        1.461456    1.237272    1.155638
     12          1           0        1.462099   -1.236450    1.155770
     13          1           0       -0.079086   -1.035291   -1.449419
     14          1           0       -0.079861    1.035426   -1.449432
     15          1           0        2.080321    1.238792   -0.578144
     16          1           0        2.081008   -1.237833   -0.577988
 ---------------------------------------------------------------------
                    Distance matrix (angstroms):
                    1          2          3          4          5
     1  C    0.000000
     2  H    1.086498   0.000000
     3  C    1.362374   2.133422   0.000000
     4  H    2.114603   2.445017   1.088046   0.000000
     5  C    2.875670   3.956027   2.440414   3.389271   0.000000
     6  H    3.956041   5.031776   3.424143   4.272446   1.086500
     7  C    2.440413   3.424146   1.425597   2.159122   1.362380
     8  H    3.389283   4.272465   2.159121   2.439651   2.114613
     9  C    2.352857   2.802453   2.918955   3.587616   3.073775
    10  C    3.073977   3.834198   3.234223   4.023744   2.352711
    11  H    2.555029   2.733479   2.925275   3.268662   3.693411
    12  H    3.693545   4.463133   3.476167   4.088846   2.555028
    13  H    2.670365   3.713405   2.744550   3.815871   1.084518
    14  H    1.084522   1.835782   2.140205   3.083662   2.670378
    15  H    2.548641   2.778671   3.513647   4.233326   3.689997
    16  H    3.690290   4.492602   3.984545   4.895191   2.548497
                    6          7          8          9         10
     6  H    0.000000
     7  C    2.133418   0.000000
     8  H    2.445013   1.088048   0.000000
     9  C    3.834036   3.234196   4.023789   0.000000
    10  C    2.802318   2.918922   3.587590   1.360770   0.000000
    11  H    4.463075   3.476188   4.088987   1.084449   2.131245
    12  H    2.733541   2.925289   3.268683   2.131239   1.084445
    13  H    1.835772   2.140215   3.083672   2.956595   2.433974
    14  H    3.713429   2.744533   3.815860   2.434131   2.956908
    15  H    4.492325   3.984461   4.895178   1.086701   2.133318
    16  H    2.778452   3.513614   4.233252   2.133312   1.086699
                   11         12         13         14         15
    11  H    0.000000
    12  H    2.473722   0.000000
    13  H    3.784724   3.033599   0.000000
    14  H    3.033610   3.784989   2.070717   0.000000
    15  H    1.840923   3.084717   3.254782   2.338137   0.000000
    16  H    3.084713   1.840915   2.338037   3.255223   2.476625
                   16
    16  H    0.000000
 Symmetry turned off by external request.
 Stoichiometry    C6H10
 Framework group  C1[X(C6H10)]
 Deg. of freedom    42
 Full point group                 C1      NOp   1
 Rotational constants (GHZ):      4.3163771      3.3948415      2.2380691
 Standard basis: 6-31+G(d) (6D, 7F)
   134 basis functions,   232 primitive gaussians,   134 cartesian basis functions
    23 alpha electrons       23 beta electrons
       nuclear repulsion energy       223.7170731659 Hartrees.
 NAtoms=   16 NActive=   16 NUniq=   16 SFac= 1.00D+00 NAtFMM=   60 NAOKFM=F Big=F
 Integral buffers will be    131072 words long.
 Raffenetti 2 integral format.
 Two-electron integral symmetry is turned off.
 One-electron integrals computed using PRISM.
 NBasis=   134 RedAO= T EigKep=  2.84D-05  NBF=   134
 NBsUse=   134 1.00D-06 EigRej= -1.00D+00 NBFU=   134
 Initial guess from the checkpoint file:  "/work/1959001.1.msa_smp.q/Gau-4880.chk"
 B after Tr=    -0.000484    0.000001    0.000172
         Rot=    1.000000    0.000001    0.000016    0.000000 Ang=   0.00 deg.
 ExpMin= 4.38D-02 ExpMax= 3.05D+03 ExpMxC= 4.57D+02 IAcc=2 IRadAn=         4 AccDes= 0.00D+00
 Harris functional with IExCor= 1009 and IRadAn=       4 diagonalized for initial guess.
 HarFok:  IExCor= 1009 AccDes= 0.00D+00 IRadAn=         4 IDoV= 1 UseB2=F ITyADJ=14
 ICtDFT=  3500011 ScaDFX=  1.000000  1.000000  1.000000  1.000000
 FoFCou: FMM=F IPFlag=           0 FMFlag=      100000 FMFlg1=           0
         NFxFlg=           0 DoJE=T BraDBF=F KetDBF=T FulRan=T
         wScrn=  0.000000 ICntrl=     500 IOpCl=  0 I1Cent=   200000004 NGrid=           0
         NMat0=    1 NMatS0=      1 NMatT0=    0 NMatD0=    1 NMtDS0=    0 NMtDT0=    0
 Symmetry not used in FoFCou.
 Requested convergence on RMS density matrix=1.00D-08 within 128 cycles.
 Requested convergence on MAX density matrix=1.00D-06.
 Requested convergence on             energy=1.00D-06.
 No special actions if energy rises.
 SCF Done:  E(RM062X) =  -234.422551126     A.U. after   11 cycles
            NFock= 11  Conv=0.66D-08     -V/T= 2.0090
 DoSCS=F DFT=T ScalE2(SS,OS)=  1.000000  1.000000
 Range of M.O.s used for correlation:     1   134
 NBasis=   134 NAE=    23 NBE=    23 NFC=     0 NFV=     0
 NROrb=    134 NOA=    23 NOB=    23 NVA=   111 NVB=   111

 **** Warning!!: The largest alpha MO coefficient is  0.63177074D+02

 Symmetrizing basis deriv contribution to polar:
 IMax=3 JMax=2 DiffMx= 0.00D+00
 Calling FoFJK, ICntrl=      2147 FMM=F ISym2X=0 I1Cent= 0 IOpClX= 0 NMat=1 NMatS=1 NMatT=0.
 -------------------------------------------------------------------
 Center     Atomic                   Forces (Hartrees/Bohr)
 Number     Number              X              Y              Z
 -------------------------------------------------------------------
      1        6          -0.006343163    0.002358792   -0.002868685
      2        1          -0.000494692    0.000180656   -0.000146364
      3        6          -0.000482648    0.001048663   -0.000065523
      4        1           0.000032415   -0.000006487    0.000053787
      5        6          -0.006349523   -0.002365232   -0.002869752
      6        1          -0.000494241   -0.000180749   -0.000146194
      7        6          -0.000480854   -0.001050406   -0.000060828
      8        1           0.000034620    0.000007596    0.000052667
      9        6           0.007503954   -0.000206681    0.002563237
     10        6           0.007501730    0.000216343    0.002560366
     11        1          -0.000021770   -0.000222404   -0.000335295
     12        1          -0.000022920    0.000220661   -0.000331994
     13        1          -0.000051637   -0.000223335    0.000590319
     14        1          -0.000050274    0.000223307    0.000592377
     15        1          -0.000140677   -0.000166052    0.000206510
     16        1          -0.000140321    0.000165331    0.000205371
 -------------------------------------------------------------------
 Cartesian Forces:  Max     0.007503954 RMS     0.002229356
 IRC-IRC-IRC-IRC-IRC-IRC-IRC-IRC-IRC-IRC-IRC-IRC-IRC-IRC-IRC-IRC-IRC-IRC
 Pt  2 Step number   1 out of a maximum of  20
 Modified Bulirsch-Stoer Extrapolation Cycles:
    EPS =    0.000010000000000
 Maximum DWI energy   std dev =  0.000006933 at pt    36
 Maximum DWI gradient std dev =  0.095617764 at pt    27
 CORRECTOR INTEGRATION CONVERGENCE:
   Recorrection delta-x convergence threshold:    0.010000
   Delta-x Convergence Met
 Point Number:   2          Path Number:   1
   CHANGE IN THE REACTION COORDINATE =    0.29493
   NET REACTION COORDINATE UP TO THIS POINT =    0.58991
  # OF POINTS ALONG THE PATH =   2
  # OF STEPS =   1

 Calculating another point on the path.
 IRC-IRC-IRC-IRC-IRC-IRC-IRC-IRC-IRC-IRC-IRC-IRC-IRC-IRC-IRC-IRC-IRC-IRC
                          Input orientation:                          
 ---------------------------------------------------------------------
 Center     Atomic      Atomic             Coordinates (Angstroms)
 Number     Number       Type             X           Y           Z
 ---------------------------------------------------------------------
      1          6           0       -0.478864    1.444719   -0.523262
      2          1           0       -0.399019    2.522380   -0.411657
      3          6           0       -1.284299    0.715844    0.289994
      4          1           0       -1.805420    1.219434    1.101586
      5          6           0       -0.477960   -1.444891   -0.523329
      6          1           0       -0.397534   -2.522520   -0.411825
      7          6           0       -1.283891   -0.716556    0.289926
      8          1           0       -1.804775   -1.220515    1.101437
      9          6           0        1.656290    0.677245    0.248196
     10          6           0        1.656636   -0.676418    0.248268
     11          1           0        1.458953    1.237818    1.155207
     12          1           0        1.459578   -1.236993    1.155345
     13          1           0       -0.074598   -1.036401   -1.443077
     14          1           0       -0.075326    1.036524   -1.443068
     15          1           0        2.080435    1.240050   -0.578992
     16          1           0        2.081114   -1.239095   -0.578837
 ---------------------------------------------------------------------
                    Distance matrix (angstroms):
                    1          2          3          4          5
     1  C    0.000000
     2  H    1.086362   0.000000
     3  C    1.356971   2.130635   0.000000
     4  H    2.109653   2.442445   1.088049   0.000000
     5  C    2.889610   3.969627   2.445497   3.391331   0.000000
     6  H    3.969637   5.044899   3.430147   4.274901   1.086363
     7  C    2.445497   3.430149   1.432401   2.163063   1.356975
     8  H    3.391336   4.274911   2.163059   2.439949   2.109656
     9  C    2.396465   2.839758   2.941139   3.606338   3.107046
    10  C    3.107224   3.859214   3.254111   4.038346   2.396334
    11  H    2.572003   2.749040   2.923436   3.264865   3.710262
    12  H    3.710371   4.476914   3.477250   4.086213   2.572008
    13  H    2.676835   3.719408   2.745410   3.815736   1.084205
    14  H    1.084209   1.837485   2.137277   3.082522   2.676837
    15  H    2.568074   2.796437   3.514450   4.233749   3.709096
    16  H    3.709371   4.508625   3.987814   4.896257   2.567936
                    6          7          8          9         10
     6  H    0.000000
     7  C    2.130631   0.000000
     8  H    2.442439   1.088046   0.000000
     9  C    3.859056   3.254087   4.038377   0.000000
    10  C    2.839618   2.941096   3.606287   1.353663   0.000000
    11  H    4.476860   3.477281   4.086345   1.084368   2.127420
    12  H    2.749084   2.923427   3.264840   2.127421   1.084373
    13  H    1.837475   2.137286   3.082525   2.965293   2.446919
    14  H    3.719418   2.745394   3.815721   2.447029   2.965550
    15  H    4.508348   3.987733   4.896231   1.086687   2.129980
    16  H    2.796206   3.514407   4.233651   2.129981   1.086687
                   11         12         13         14         15
    11  H    0.000000
    12  H    2.474811   0.000000
    13  H    3.778218   3.024191   0.000000
    14  H    3.024163   3.778434   2.072925   0.000000
    15  H    1.842197   3.086929   3.251621   2.331385   0.000000
    16  H    3.086923   1.842199   2.331329   3.252011   2.479145
                   16
    16  H    0.000000
 Symmetry turned off by external request.
 Stoichiometry    C6H10
 Framework group  C1[X(C6H10)]
 Deg. of freedom    42
 Full point group                 C1      NOp   1
 Rotational constants (GHZ):      4.2894818      3.3411934      2.2108077
 Standard basis: 6-31+G(d) (6D, 7F)
   134 basis functions,   232 primitive gaussians,   134 cartesian basis functions
    23 alpha electrons       23 beta electrons
       nuclear repulsion energy       223.0495709067 Hartrees.
 NAtoms=   16 NActive=   16 NUniq=   16 SFac= 1.00D+00 NAtFMM=   60 NAOKFM=F Big=F
 Integral buffers will be    131072 words long.
 Raffenetti 2 integral format.
 Two-electron integral symmetry is turned off.
 One-electron integrals computed using PRISM.
 NBasis=   134 RedAO= T EigKep=  2.84D-05  NBF=   134
 NBsUse=   134 1.00D-06 EigRej= -1.00D+00 NBFU=   134
 Initial guess from the checkpoint file:  "/work/1959001.1.msa_smp.q/Gau-4880.chk"
 B after Tr=    -0.000603    0.000000    0.000130
         Rot=    1.000000    0.000000   -0.000014    0.000000 Ang=   0.00 deg.
 ExpMin= 4.38D-02 ExpMax= 3.05D+03 ExpMxC= 4.57D+02 IAcc=2 IRadAn=         4 AccDes= 0.00D+00
 Harris functional with IExCor= 1009 and IRadAn=       4 diagonalized for initial guess.
 HarFok:  IExCor= 1009 AccDes= 0.00D+00 IRadAn=         4 IDoV= 1 UseB2=F ITyADJ=14
 ICtDFT=  3500011 ScaDFX=  1.000000  1.000000  1.000000  1.000000
 FoFCou: FMM=F IPFlag=           0 FMFlag=      100000 FMFlg1=           0
         NFxFlg=           0 DoJE=T BraDBF=F KetDBF=T FulRan=T
         wScrn=  0.000000 ICntrl=     500 IOpCl=  0 I1Cent=   200000004 NGrid=           0
         NMat0=    1 NMatS0=      1 NMatT0=    0 NMatD0=    1 NMtDS0=    0 NMtDT0=    0
 Symmetry not used in FoFCou.
 Requested convergence on RMS density matrix=1.00D-08 within 128 cycles.
 Requested convergence on MAX density matrix=1.00D-06.
 Requested convergence on             energy=1.00D-06.
 No special actions if energy rises.
 SCF Done:  E(RM062X) =  -234.424121681     A.U. after   11 cycles
            NFock= 11  Conv=0.67D-08     -V/T= 2.0089
 DoSCS=F DFT=T ScalE2(SS,OS)=  1.000000  1.000000
 Range of M.O.s used for correlation:     1   134
 NBasis=   134 NAE=    23 NBE=    23 NFC=     0 NFV=     0
 NROrb=    134 NOA=    23 NOB=    23 NVA=   111 NVB=   111

 **** Warning!!: The largest alpha MO coefficient is  0.63134006D+02

 Symmetrizing basis deriv contribution to polar:
 IMax=3 JMax=2 DiffMx= 0.00D+00
 Calling FoFJK, ICntrl=      2147 FMM=F ISym2X=0 I1Cent= 0 IOpClX= 0 NMat=1 NMatS=1 NMatT=0.
 -------------------------------------------------------------------
 Center     Atomic                   Forces (Hartrees/Bohr)
 Number     Number              X              Y              Z
 -------------------------------------------------------------------
      1        6          -0.008632014    0.003192928   -0.003543604
      2        1          -0.000691844    0.000259907   -0.000220995
      3        6          -0.000596609    0.001350817   -0.000109679
      4        1          -0.000003184   -0.000002061    0.000068616
      5        6          -0.008635173   -0.003200204   -0.003544734
      6        1          -0.000691672   -0.000260486   -0.000220893
      7        6          -0.000594049   -0.001350794   -0.000108338
      8        1          -0.000003204    0.000001562    0.000070208
      9        6           0.010003455   -0.000651491    0.003342852
     10        6           0.010001037    0.000657341    0.003344461
     11        1          -0.000001939   -0.000199824   -0.000298247
     12        1          -0.000001448    0.000201277   -0.000300148
     13        1          -0.000003691   -0.000238517    0.000571700
     14        1          -0.000003562    0.000238965    0.000572988
     15        1          -0.000072685   -0.000142198    0.000187657
     16        1          -0.000073418    0.000142778    0.000188156
 -------------------------------------------------------------------
 Cartesian Forces:  Max     0.010003455 RMS     0.002974457
 IRC-IRC-IRC-IRC-IRC-IRC-IRC-IRC-IRC-IRC-IRC-IRC-IRC-IRC-IRC-IRC-IRC-IRC
 Pt  3 Step number   1 out of a maximum of  20
 Modified Bulirsch-Stoer Extrapolation Cycles:
    EPS =    0.000010000000000
 Maximum DWI energy   std dev =  0.000006956 at pt    36
 Maximum DWI gradient std dev =  0.057271073 at pt    28
 CORRECTOR INTEGRATION CONVERGENCE:
   Recorrection delta-x convergence threshold:    0.010000
   Delta-x Convergence Met
 Point Number:   3          Path Number:   1
   CHANGE IN THE REACTION COORDINATE =    0.29498
   NET REACTION COORDINATE UP TO THIS POINT =    0.88489
  # OF POINTS ALONG THE PATH =   3
  # OF STEPS =   1

 Calculating another point on the path.
 IRC-IRC-IRC-IRC-IRC-IRC-IRC-IRC-IRC-IRC-IRC-IRC-IRC-IRC-IRC-IRC-IRC-IRC
                          Input orientation:                          
 ---------------------------------------------------------------------
 Center     Atomic      Atomic             Coordinates (Angstroms)
 Number     Number       Type             X           Y           Z
 ---------------------------------------------------------------------
      1          6           0       -0.497812    1.451780   -0.529869
      2          1           0       -0.417981    2.529250   -0.417403
      3          6           0       -1.285439    0.719001    0.289548
      4          1           0       -1.805512    1.219545    1.103701
      5          6           0       -0.496912   -1.451966   -0.529941
      6          1           0       -0.416491   -2.529403   -0.417570
      7          6           0       -1.285028   -0.719714    0.289484
      8          1           0       -1.804856   -1.220624    1.103567
      9          6           0        1.677586    0.674175    0.255113
     10          6           0        1.677928   -0.673334    0.255186
     11          1           0        1.457883    1.238007    1.154844
     12          1           0        1.458514   -1.237175    1.154982
     13          1           0       -0.071005   -1.038380   -1.436933
     14          1           0       -0.071720    1.038505   -1.436918
     15          1           0        2.081942    1.240835   -0.579297
     16          1           0        2.082615   -1.239876   -0.579144
 ---------------------------------------------------------------------
                    Distance matrix (angstroms):
                    1          2          3          4          5
     1  C    0.000000
     2  H    1.086261   0.000000
     3  C    1.352319   2.128207   0.000000
     4  H    2.105367   2.440149   1.088056   0.000000
     5  C    2.903746   3.983588   2.450803   3.393846   0.000000
     6  H    3.983596   5.058653   3.436162   4.277646   1.086261
     7  C    2.450803   3.436164   1.438714   2.166697   1.352323
     8  H    3.393850   4.277654   2.166694   2.440168   2.105371
     9  C    2.439923   2.878364   2.963565   3.626225   3.140896
    10  C    3.141061   3.886097   3.274343   4.054297   2.439799
    11  H    2.590116   2.767333   2.922999   3.263849   3.727691
    12  H    3.727789   4.492169   3.479207   4.085581   2.590133
    13  H    2.684367   3.726636   2.746630   3.815961   1.084013
    14  H    1.084014   1.838920   2.134451   3.081161   2.684370
    15  H    2.588835   2.817062   3.516598   4.236182   3.728820
    16  H    3.729080   4.526085   3.991943   4.898801   2.588699
                    6          7          8          9         10
     6  H    0.000000
     7  C    2.128205   0.000000
     8  H    2.440147   1.088055   0.000000
     9  C    3.885946   3.274323   4.054324   0.000000
    10  C    2.878226   2.963517   3.626163   1.347509   0.000000
    11  H    4.492120   3.479236   4.085702   1.084293   2.123918
    12  H    2.767384   2.922991   3.263817   2.123915   1.084293
    13  H    1.838915   2.134459   3.081167   2.975472   2.460750
    14  H    3.726647   2.746618   3.815951   2.460849   2.975715
    15  H    4.525816   3.991869   4.898776   1.086668   2.126883
    16  H    2.816827   3.516547   4.236073   2.126881   1.086668
                   11         12         13         14         15
    11  H    0.000000
    12  H    2.475182   0.000000
    13  H    3.773161   3.016118   0.000000
    14  H    3.016076   3.773365   2.076885   0.000000
    15  H    1.843015   3.088190   3.250467   2.326953   0.000000
    16  H    3.088188   1.843014   2.326904   3.250839   2.480710
                   16
    16  H    0.000000
 Symmetry turned off by external request.
 Stoichiometry    C6H10
 Framework group  C1[X(C6H10)]
 Deg. of freedom    42
 Full point group                 C1      NOp   1
 Rotational constants (GHZ):      4.2622595      3.2872548      2.1831354
 Standard basis: 6-31+G(d) (6D, 7F)
   134 basis functions,   232 primitive gaussians,   134 cartesian basis functions
    23 alpha electrons       23 beta electrons
       nuclear repulsion energy       222.3589295657 Hartrees.
 NAtoms=   16 NActive=   16 NUniq=   16 SFac= 1.00D+00 NAtFMM=   60 NAOKFM=F Big=F
 Integral buffers will be    131072 words long.
 Raffenetti 2 integral format.
 Two-electron integral symmetry is turned off.
 One-electron integrals computed using PRISM.
 NBasis=   134 RedAO= T EigKep=  2.85D-05  NBF=   134
 NBsUse=   134 1.00D-06 EigRej= -1.00D+00 NBFU=   134
 Initial guess from the checkpoint file:  "/work/1959001.1.msa_smp.q/Gau-4880.chk"
 B after Tr=    -0.000639    0.000000    0.000087
         Rot=    1.000000    0.000000   -0.000018    0.000000 Ang=   0.00 deg.
 ExpMin= 4.38D-02 ExpMax= 3.05D+03 ExpMxC= 4.57D+02 IAcc=2 IRadAn=         4 AccDes= 0.00D+00
 Harris functional with IExCor= 1009 and IRadAn=       4 diagonalized for initial guess.
 HarFok:  IExCor= 1009 AccDes= 0.00D+00 IRadAn=         4 IDoV= 1 UseB2=F ITyADJ=14
 ICtDFT=  3500011 ScaDFX=  1.000000  1.000000  1.000000  1.000000
 FoFCou: FMM=F IPFlag=           0 FMFlag=      100000 FMFlg1=           0
         NFxFlg=           0 DoJE=T BraDBF=F KetDBF=T FulRan=T
         wScrn=  0.000000 ICntrl=     500 IOpCl=  0 I1Cent=   200000004 NGrid=           0
         NMat0=    1 NMatS0=      1 NMatT0=    0 NMatD0=    1 NMtDS0=    0 NMtDT0=    0
 Symmetry not used in FoFCou.
 Requested convergence on RMS density matrix=1.00D-08 within 128 cycles.
 Requested convergence on MAX density matrix=1.00D-06.
 Requested convergence on             energy=1.00D-06.
 No special actions if energy rises.
 SCF Done:  E(RM062X) =  -234.426067712     A.U. after   11 cycles
            NFock= 11  Conv=0.65D-08     -V/T= 2.0088
 DoSCS=F DFT=T ScalE2(SS,OS)=  1.000000  1.000000
 Range of M.O.s used for correlation:     1   134
 NBasis=   134 NAE=    23 NBE=    23 NFC=     0 NFV=     0
 NROrb=    134 NOA=    23 NOB=    23 NVA=   111 NVB=   111

 **** Warning!!: The largest alpha MO coefficient is  0.63015972D+02

 Symmetrizing basis deriv contribution to polar:
 IMax=3 JMax=2 DiffMx= 0.00D+00
 Calling FoFJK, ICntrl=      2147 FMM=F ISym2X=0 I1Cent= 0 IOpClX= 0 NMat=1 NMatS=1 NMatT=0.
 -------------------------------------------------------------------
 Center     Atomic                   Forces (Hartrees/Bohr)
 Number     Number              X              Y              Z
 -------------------------------------------------------------------
      1        6          -0.009984189    0.003811733   -0.004033764
      2        1          -0.000900762    0.000321349   -0.000297681
      3        6          -0.000802527    0.001354035   -0.000038983
      4        1          -0.000059545   -0.000003559    0.000070125
      5        6          -0.009985165   -0.003818051   -0.004036154
      6        1          -0.000900472   -0.000322103   -0.000297594
      7        6          -0.000800431   -0.001354882   -0.000037573
      8        1          -0.000059498    0.000003422    0.000070580
      9        6           0.011635933   -0.000616543    0.003820930
     10        6           0.011635801    0.000625112    0.003821086
     11        1           0.000080594   -0.000175993   -0.000228674
     12        1           0.000079853    0.000175775   -0.000228216
     13        1          -0.000027725   -0.000279446    0.000529709
     14        1          -0.000026962    0.000279107    0.000529076
     15        1           0.000057739   -0.000119509    0.000178507
     16        1           0.000057353    0.000119553    0.000178625
 -------------------------------------------------------------------
 Cartesian Forces:  Max     0.011635933 RMS     0.003445378
 IRC-IRC-IRC-IRC-IRC-IRC-IRC-IRC-IRC-IRC-IRC-IRC-IRC-IRC-IRC-IRC-IRC-IRC
 Pt  4 Step number   1 out of a maximum of  20
 Modified Bulirsch-Stoer Extrapolation Cycles:
    EPS =    0.000010000000000
 Maximum DWI energy   std dev =  0.000008570 at pt    36
 Maximum DWI gradient std dev =  0.043076989 at pt    38
 CORRECTOR INTEGRATION CONVERGENCE:
   Recorrection delta-x convergence threshold:    0.010000
   Delta-x Convergence Met
 Point Number:   4          Path Number:   1
   CHANGE IN THE REACTION COORDINATE =    0.29497
   NET REACTION COORDINATE UP TO THIS POINT =    1.17986
  # OF POINTS ALONG THE PATH =   4
  # OF STEPS =   1

 Calculating another point on the path.
 IRC-IRC-IRC-IRC-IRC-IRC-IRC-IRC-IRC-IRC-IRC-IRC-IRC-IRC-IRC-IRC-IRC-IRC
                          Input orientation:                          
 ---------------------------------------------------------------------
 Center     Atomic      Atomic             Coordinates (Angstroms)
 Number     Number       Type             X           Y           Z
 ---------------------------------------------------------------------
      1          6           0       -0.516509    1.458970   -0.536559
      2          1           0       -0.439628    2.536604   -0.424231
      3          6           0       -1.286836    0.721748    0.289350
      4          1           0       -1.806935    1.219474    1.105251
      5          6           0       -0.515611   -1.459169   -0.536633
      6          1           0       -0.438131   -2.536771   -0.424398
      7          6           0       -1.286421   -0.722462    0.289289
      8          1           0       -1.806274   -1.220553    1.105124
      9          6           0        1.698951    0.671832    0.261949
     10          6           0        1.699292   -0.670975    0.262023
     11          1           0        1.459128    1.237910    1.154941
     12          1           0        1.459747   -1.237075    1.155081
     13          1           0       -0.068952   -1.041567   -1.431467
     14          1           0       -0.069656    1.041693   -1.431450
     15          1           0        2.085787    1.241232   -0.578758
     16          1           0        2.086454   -1.240273   -0.578603
 ---------------------------------------------------------------------
                    Distance matrix (angstroms):
                    1          2          3          4          5
     1  C    0.000000
     2  H    1.086197   0.000000
     3  C    1.348713   2.126185   0.000000
     4  H    2.101927   2.437966   1.088085   0.000000
     5  C    2.918140   3.998077   2.456305   3.396827   0.000000
     6  H    3.998083   5.073375   3.442045   4.280517   1.086197
     7  C    2.456306   3.442047   1.444210   2.169757   1.348715
     8  H    3.396831   4.280523   2.169754   2.440027   2.101931
     9  C    2.483035   2.919202   2.986330   3.647233   3.175403
    10  C    3.175559   3.915928   3.295055   4.071666   2.482921
    11  H    2.610207   2.790281   2.925063   3.266493   3.746366
    12  H    3.746451   4.510267   3.482843   4.087582   2.610223
    13  H    2.693299   3.735671   2.748406   3.816783   1.083801
    14  H    1.083803   1.840144   2.131911   3.079708   2.693304
    15  H    2.611730   2.842462   3.521088   4.241420   3.749828
    16  H    3.750080   4.546397   3.997743   4.903488   2.611593
                    6          7          8          9         10
     6  H    0.000000
     7  C    2.126184   0.000000
     8  H    2.437966   1.088084   0.000000
     9  C    3.915779   3.295034   4.071691   0.000000
    10  C    2.919066   2.986282   3.647169   1.342808   0.000000
    11  H    4.510224   3.482880   4.087710   1.084156   2.121044
    12  H    2.790324   2.925041   3.266445   2.121044   1.084159
    13  H    1.840140   2.131915   3.079711   2.988122   2.476274
    14  H    3.735683   2.748400   3.816779   2.476362   2.988355
    15  H    4.546130   3.997673   4.903466   1.086575   2.124342
    16  H    2.842220   3.521030   4.241303   2.124343   1.086575
                   11         12         13         14         15
    11  H    0.000000
    12  H    2.474985   0.000000
    13  H    3.771015   3.010876   0.000000
    14  H    3.010831   3.771207   2.083260   0.000000
    15  H    1.843481   3.088709   3.252873   2.326550   0.000000
    16  H    3.088706   1.843483   2.326507   3.253233   2.481505
                   16
    16  H    0.000000
 Symmetry turned off by external request.
 Stoichiometry    C6H10
 Framework group  C1[X(C6H10)]
 Deg. of freedom    42
 Full point group                 C1      NOp   1
 Rotational constants (GHZ):      4.2342420      3.2326170      2.1548632
 Standard basis: 6-31+G(d) (6D, 7F)
   134 basis functions,   232 primitive gaussians,   134 cartesian basis functions
    23 alpha electrons       23 beta electrons
       nuclear repulsion energy       221.6269524106 Hartrees.
 NAtoms=   16 NActive=   16 NUniq=   16 SFac= 1.00D+00 NAtFMM=   60 NAOKFM=F Big=F
 Integral buffers will be    131072 words long.
 Raffenetti 2 integral format.
 Two-electron integral symmetry is turned off.
 One-electron integrals computed using PRISM.
 NBasis=   134 RedAO= T EigKep=  2.86D-05  NBF=   134
 NBsUse=   134 1.00D-06 EigRej= -1.00D+00 NBFU=   134
 Initial guess from the checkpoint file:  "/work/1959001.1.msa_smp.q/Gau-4880.chk"
 B after Tr=    -0.000682    0.000000    0.000045
         Rot=    1.000000    0.000000   -0.000024    0.000000 Ang=   0.00 deg.
 ExpMin= 4.38D-02 ExpMax= 3.05D+03 ExpMxC= 4.57D+02 IAcc=2 IRadAn=         4 AccDes= 0.00D+00
 Harris functional with IExCor= 1009 and IRadAn=       4 diagonalized for initial guess.
 HarFok:  IExCor= 1009 AccDes= 0.00D+00 IRadAn=         4 IDoV= 1 UseB2=F ITyADJ=14
 ICtDFT=  3500011 ScaDFX=  1.000000  1.000000  1.000000  1.000000
 FoFCou: FMM=F IPFlag=           0 FMFlag=      100000 FMFlg1=           0
         NFxFlg=           0 DoJE=T BraDBF=F KetDBF=T FulRan=T
         wScrn=  0.000000 ICntrl=     500 IOpCl=  0 I1Cent=   200000004 NGrid=           0
         NMat0=    1 NMatS0=      1 NMatT0=    0 NMatD0=    1 NMtDS0=    0 NMtDT0=    0
 Symmetry not used in FoFCou.
 Requested convergence on RMS density matrix=1.00D-08 within 128 cycles.
 Requested convergence on MAX density matrix=1.00D-06.
 Requested convergence on             energy=1.00D-06.
 No special actions if energy rises.
 SCF Done:  E(RM062X) =  -234.428222201     A.U. after   11 cycles
            NFock= 11  Conv=0.53D-08     -V/T= 2.0088
 DoSCS=F DFT=T ScalE2(SS,OS)=  1.000000  1.000000
 Range of M.O.s used for correlation:     1   134
 NBasis=   134 NAE=    23 NBE=    23 NFC=     0 NFV=     0
 NROrb=    134 NOA=    23 NOB=    23 NVA=   111 NVB=   111

 **** Warning!!: The largest alpha MO coefficient is  0.62786395D+02

 Symmetrizing basis deriv contribution to polar:
 IMax=3 JMax=2 DiffMx= 0.00D+00
 Calling FoFJK, ICntrl=      2147 FMM=F ISym2X=0 I1Cent= 0 IOpClX= 0 NMat=1 NMatS=1 NMatT=0.
 -------------------------------------------------------------------
 Center     Atomic                   Forces (Hartrees/Bohr)
 Number     Number              X              Y              Z
 -------------------------------------------------------------------
      1        6          -0.010531631    0.004093418   -0.004110220
      2        1          -0.001051708    0.000347048   -0.000361579
      3        6          -0.000987844    0.001204868    0.000031340
      4        1          -0.000130740   -0.000013132    0.000047123
      5        6          -0.010532976   -0.004100169   -0.004111688
      6        1          -0.001051395   -0.000347857   -0.000361609
      7        6          -0.000986098   -0.001205909    0.000032278
      8        1          -0.000130748    0.000012941    0.000047504
      9        6           0.012316458   -0.000616535    0.003966162
     10        6           0.012315786    0.000623652    0.003968169
     11        1           0.000200615   -0.000107309   -0.000085297
     12        1           0.000200846    0.000108373   -0.000086356
     13        1          -0.000065917   -0.000305528    0.000367278
     14        1          -0.000066025    0.000305779    0.000367328
     15        1           0.000250945   -0.000062737    0.000144669
     16        1           0.000250430    0.000063098    0.000144898
 -------------------------------------------------------------------
 Cartesian Forces:  Max     0.012316458 RMS     0.003632076
 IRC-IRC-IRC-IRC-IRC-IRC-IRC-IRC-IRC-IRC-IRC-IRC-IRC-IRC-IRC-IRC-IRC-IRC
 Pt  5 Step number   1 out of a maximum of  20
 Modified Bulirsch-Stoer Extrapolation Cycles:
    EPS =    0.000010000000000
 Maximum DWI energy   std dev =  0.000009775 at pt    47
 Maximum DWI gradient std dev =  0.029068274 at pt    38
 CORRECTOR INTEGRATION CONVERGENCE:
   Recorrection delta-x convergence threshold:    0.010000
   Delta-x Convergence Met
 Point Number:   5          Path Number:   1
   CHANGE IN THE REACTION COORDINATE =    0.29497
   NET REACTION COORDINATE UP TO THIS POINT =    1.47483
  # OF POINTS ALONG THE PATH =   5
  # OF STEPS =   1

 Calculating another point on the path.
 IRC-IRC-IRC-IRC-IRC-IRC-IRC-IRC-IRC-IRC-IRC-IRC-IRC-IRC-IRC-IRC-IRC-IRC
                          Input orientation:                          
 ---------------------------------------------------------------------
 Center     Atomic      Atomic             Coordinates (Angstroms)
 Number     Number       Type             X           Y           Z
 ---------------------------------------------------------------------
      1          6           0       -0.534921    1.466150   -0.543230
      2          1           0       -0.463470    2.544232   -0.431876
      3          6           0       -1.288579    0.724050    0.289313
      4          1           0       -1.809823    1.219146    1.106138
      5          6           0       -0.534025   -1.466361   -0.543307
      6          1           0       -0.461968   -2.544413   -0.432046
      7          6           0       -1.288162   -0.724767    0.289254
      8          1           0       -1.809159   -1.220226    1.106015
      9          6           0        1.720369    0.670078    0.268685
     10          6           0        1.720709   -0.669207    0.268761
     11          1           0        1.463263    1.237670    1.155807
     12          1           0        1.463884   -1.236826    1.155947
     13          1           0       -0.068831   -1.046091   -1.427257
     14          1           0       -0.069535    1.046223   -1.427242
     15          1           0        2.092523    1.241360   -0.577271
     16          1           0        2.093183   -1.240396   -0.577117
 ---------------------------------------------------------------------
                    Distance matrix (angstroms):
                    1          2          3          4          5
     1  C    0.000000
     2  H    1.086170   0.000000
     3  C    1.346046   2.124613   0.000000
     4  H    2.099238   2.435981   1.088126   0.000000
     5  C    2.932512   4.012761   2.461811   3.400041   0.000000
     6  H    4.012767   5.088645   3.447679   4.283351   1.086170
     7  C    2.461812   3.447680   1.448817   2.172148   1.346047
     8  H    3.400045   4.283355   2.172145   2.439372   2.099241
     9  C    2.525722   2.961823   3.009503   3.669477   3.210295
    10  C    3.210444   3.948129   3.316233   4.090444   2.525616
    11  H    2.632807   2.817826   2.930401   3.273516   3.766687
    12  H    3.766764   4.531256   3.488860   4.092853   2.632830
    13  H    2.703720   3.746591   2.750963   3.818435   1.083697
    14  H    1.083698   1.841187   2.129888   3.078395   2.703732
    15  H    2.637262   2.872580   3.528516   4.250019   3.772487
    16  H    3.772728   4.569571   4.005754   4.910820   2.637124
                    6          7          8          9         10
     6  H    0.000000
     7  C    2.124613   0.000000
     8  H    2.435985   1.088125   0.000000
     9  C    3.947982   3.316213   4.090469   0.000000
    10  C    2.961690   3.009454   3.669412   1.339284   0.000000
    11  H    4.531218   3.488898   4.092979   1.084089   2.118798
    12  H    2.817873   2.930379   3.273466   2.118797   1.084089
    13  H    1.841187   2.129889   3.078397   3.003780   2.494188
    14  H    3.746609   2.750966   3.818438   2.494276   3.004014
    15  H    4.569309   4.005689   4.910802   1.086510   2.122329
    16  H    2.872334   3.528451   4.249895   2.122329   1.086510
                   11         12         13         14         15
    11  H    0.000000
    12  H    2.474496   0.000000
    13  H    3.772943   3.009741   0.000000
    14  H    3.009695   3.773136   2.092314   0.000000
    15  H    1.843784   3.088792   3.259809   2.331314   0.000000
    16  H    3.088792   1.843784   2.331265   3.260167   2.481756
                   16
    16  H    0.000000
 Symmetry turned off by external request.
 Stoichiometry    C6H10
 Framework group  C1[X(C6H10)]
 Deg. of freedom    42
 Full point group                 C1      NOp   1
 Rotational constants (GHZ):      4.2060574      3.1772011      2.1261022
 Standard basis: 6-31+G(d) (6D, 7F)
   134 basis functions,   232 primitive gaussians,   134 cartesian basis functions
    23 alpha electrons       23 beta electrons
       nuclear repulsion energy       220.8555667969 Hartrees.
 NAtoms=   16 NActive=   16 NUniq=   16 SFac= 1.00D+00 NAtFMM=   60 NAOKFM=F Big=F
 Integral buffers will be    131072 words long.
 Raffenetti 2 integral format.
 Two-electron integral symmetry is turned off.
 One-electron integrals computed using PRISM.
 NBasis=   134 RedAO= T EigKep=  2.87D-05  NBF=   134
 NBsUse=   134 1.00D-06 EigRej= -1.00D+00 NBFU=   134
 Initial guess from the checkpoint file:  "/work/1959001.1.msa_smp.q/Gau-4880.chk"
 B after Tr=    -0.000670    0.000000    0.000000
         Rot=    1.000000    0.000000   -0.000022    0.000000 Ang=   0.00 deg.
 ExpMin= 4.38D-02 ExpMax= 3.05D+03 ExpMxC= 4.57D+02 IAcc=2 IRadAn=         4 AccDes= 0.00D+00
 Harris functional with IExCor= 1009 and IRadAn=       4 diagonalized for initial guess.
 HarFok:  IExCor= 1009 AccDes= 0.00D+00 IRadAn=         4 IDoV= 1 UseB2=F ITyADJ=14
 ICtDFT=  3500011 ScaDFX=  1.000000  1.000000  1.000000  1.000000
 FoFCou: FMM=F IPFlag=           0 FMFlag=      100000 FMFlg1=           0
         NFxFlg=           0 DoJE=T BraDBF=F KetDBF=T FulRan=T
         wScrn=  0.000000 ICntrl=     500 IOpCl=  0 I1Cent=   200000004 NGrid=           0
         NMat0=    1 NMatS0=      1 NMatT0=    0 NMatD0=    1 NMtDS0=    0 NMtDT0=    0
 Symmetry not used in FoFCou.
 Requested convergence on RMS density matrix=1.00D-08 within 128 cycles.
 Requested convergence on MAX density matrix=1.00D-06.
 Requested convergence on             energy=1.00D-06.
 No special actions if energy rises.
 SCF Done:  E(RM062X) =  -234.430435105     A.U. after   11 cycles
            NFock= 11  Conv=0.39D-08     -V/T= 2.0088
 DoSCS=F DFT=T ScalE2(SS,OS)=  1.000000  1.000000
 Range of M.O.s used for correlation:     1   134
 NBasis=   134 NAE=    23 NBE=    23 NFC=     0 NFV=     0
 NROrb=    134 NOA=    23 NOB=    23 NVA=   111 NVB=   111

 **** Warning!!: The largest alpha MO coefficient is  0.62454803D+02

 Symmetrizing basis deriv contribution to polar:
 IMax=3 JMax=2 DiffMx= 0.00D+00
 Calling FoFJK, ICntrl=      2147 FMM=F ISym2X=0 I1Cent= 0 IOpClX= 0 NMat=1 NMatS=1 NMatT=0.
 -------------------------------------------------------------------
 Center     Atomic                   Forces (Hartrees/Bohr)
 Number     Number              X              Y              Z
 -------------------------------------------------------------------
      1        6          -0.010422882    0.004087409   -0.003915444
      2        1          -0.001159545    0.000334247   -0.000401188
      3        6          -0.001170715    0.000978924    0.000056671
      4        1          -0.000187991   -0.000025686    0.000025621
      5        6          -0.010422403   -0.004093245   -0.003917822
      6        1          -0.001159302   -0.000335151   -0.000401331
      7        6          -0.001169916   -0.000980022    0.000057534
      8        1          -0.000188151    0.000025471    0.000025880
      9        6           0.012290164   -0.000501745    0.003881282
     10        6           0.012290370    0.000509892    0.003881653
     11        1           0.000330096   -0.000040960    0.000054093
     12        1           0.000329540    0.000040896    0.000054672
     13        1          -0.000125641   -0.000321439    0.000180862
     14        1          -0.000125175    0.000321133    0.000179974
     15        1           0.000445945   -0.000008611    0.000118648
     16        1           0.000445606    0.000008886    0.000118895
 -------------------------------------------------------------------
 Cartesian Forces:  Max     0.012290370 RMS     0.003602885
 IRC-IRC-IRC-IRC-IRC-IRC-IRC-IRC-IRC-IRC-IRC-IRC-IRC-IRC-IRC-IRC-IRC-IRC
 Pt  6 Step number   1 out of a maximum of  20
 Modified Bulirsch-Stoer Extrapolation Cycles:
    EPS =    0.000010000000000
 Maximum DWI energy   std dev =  0.000008035 at pt    35
 Maximum DWI gradient std dev =  0.021671740 at pt    29
 CORRECTOR INTEGRATION CONVERGENCE:
   Recorrection delta-x convergence threshold:    0.010000
   Delta-x Convergence Met
 Point Number:   6          Path Number:   1
   CHANGE IN THE REACTION COORDINATE =    0.29497
   NET REACTION COORDINATE UP TO THIS POINT =    1.76980
  # OF POINTS ALONG THE PATH =   6
  # OF STEPS =   1

 Calculating another point on the path.
 IRC-IRC-IRC-IRC-IRC-IRC-IRC-IRC-IRC-IRC-IRC-IRC-IRC-IRC-IRC-IRC-IRC-IRC
                          Input orientation:                          
 ---------------------------------------------------------------------
 Center     Atomic      Atomic             Coordinates (Angstroms)
 Number     Number       Type             X           Y           Z
 ---------------------------------------------------------------------
      1          6           0       -0.552974    1.473195   -0.549795
      2          1           0       -0.489596    2.551970   -0.440239
      3          6           0       -1.290722    0.725900    0.289350
      4          1           0       -1.813908    1.218505    1.106526
      5          6           0       -0.552076   -1.473417   -0.549875
      6          1           0       -0.488088   -2.552165   -0.440413
      7          6           0       -1.290304   -0.726619    0.289292
      8          1           0       -1.813243   -1.219587    1.106406
      9          6           0        1.741787    0.668881    0.275307
     10          6           0        1.742127   -0.667997    0.275385
     11          1           0        1.470457    1.237401    1.157587
     12          1           0        1.471069   -1.236552    1.157728
     13          1           0       -0.070898   -1.051925   -1.424609
     14          1           0       -0.071599    1.052058   -1.424596
     15          1           0        2.102462    1.241327   -0.574765
     16          1           0        2.103115   -1.240361   -0.574609
 ---------------------------------------------------------------------
                    Distance matrix (angstroms):
                    1          2          3          4          5
     1  C    0.000000
     2  H    1.086174   0.000000
     3  C    1.344206   2.123355   0.000000
     4  H    2.097194   2.434012   1.088191   0.000000
     5  C    2.946613   4.027364   2.467163   3.403282   0.000000
     6  H    4.027369   5.104135   3.452895   4.285881   1.086174
     7  C    2.467165   3.452896   1.452518   2.173830   1.344206
     8  H    3.403287   4.285883   2.173828   2.438092   2.097198
     9  C    2.567809   3.006177   3.033078   3.692693   3.245332
    10  C    3.245476   3.982574   3.337861   4.110361   2.567708
    11  H    2.658012   2.850079   2.939317   3.284817   3.788747
    12  H    3.788814   4.555283   3.497540   4.101341   2.658031
    13  H    2.715498   3.759301   2.754321   3.820940   1.083674
    14  H    1.083677   1.842123   2.128439   3.077324   2.715514
    15  H    2.665656   2.907687   3.539217   4.262067   3.796977
    16  H    3.797211   4.595866   4.016309   4.920905   2.665515
                    6          7          8          9         10
     6  H    0.000000
     7  C    2.123356   0.000000
     8  H    2.434019   1.088190   0.000000
     9  C    3.982429   3.337843   4.110387   0.000000
    10  C    3.006046   3.033029   3.692628   1.336878   0.000000
    11  H    4.555252   3.497587   4.101476   1.084090   2.117221
    12  H    2.850121   2.939284   3.284757   2.117222   1.084093
    13  H    1.842122   2.128434   3.077323   3.022701   2.514844
    14  H    3.759322   2.754332   3.820951   2.514928   3.022933
    15  H    4.595605   4.016250   4.920893   1.086464   2.120876
    16  H    2.907435   3.539146   4.261937   2.120877   1.086464
                   11         12         13         14         15
    11  H    0.000000
    12  H    2.473953   0.000000
    13  H    3.779488   3.013340   0.000000
    14  H    3.013297   3.779676   2.103982   0.000000
    15  H    1.844041   3.088701   3.271809   2.341917   0.000000
    16  H    3.088699   1.844042   2.341868   3.272161   2.481688
                   16
    16  H    0.000000
 Symmetry turned off by external request.
 Stoichiometry    C6H10
 Framework group  C1[X(C6H10)]
 Deg. of freedom    42
 Full point group                 C1      NOp   1
 Rotational constants (GHZ):      4.1781411      3.1212097      2.0970229
 Standard basis: 6-31+G(d) (6D, 7F)
[...]
            NFock=  9  Conv=0.71D-08     -V/T= 2.0094
 DoSCS=F DFT=T ScalE2(SS,OS)=  1.000000  1.000000
 Range of M.O.s used for correlation:     1   134
 NBasis=   134 NAE=    23 NBE=    23 NFC=     0 NFV=     0
 NROrb=    134 NOA=    23 NOB=    23 NVA=   111 NVB=   111

 **** Warning!!: The largest alpha MO coefficient is  0.60939750D+02

 Symmetrizing basis deriv contribution to polar:
 IMax=3 JMax=2 DiffMx= 0.00D+00
 Calling FoFJK, ICntrl=      2147 FMM=F ISym2X=0 I1Cent= 0 IOpClX= 0 NMat=1 NMatS=1 NMatT=0.
 -------------------------------------------------------------------
 Center     Atomic                   Forces (Hartrees/Bohr)
 Number     Number              X              Y              Z
 -------------------------------------------------------------------
      1        6           0.000525977   -0.000641288   -0.000550689
      2        1          -0.000027562   -0.000102729   -0.000042836
      3        6          -0.000679226    0.000242908   -0.000186036
      4        1          -0.000123204   -0.000029707   -0.000000556
      5        6          -0.001004205   -0.000622371    0.000683050
      6        1          -0.000009178   -0.000101099    0.000047020
      7        6          -0.000398296    0.000240755    0.000034065
      8        1           0.000024634   -0.000024532   -0.000040921
      9        6           0.000236427    0.000452155    0.000470067
     10        6           0.001346821    0.000502566   -0.000444565
     11        1           0.000362250   -0.000398860   -0.000543166
     12        1          -0.000458626   -0.000408915    0.000457782
     13        1           0.000673988    0.000498520   -0.000689902
     14        1          -0.000696800    0.000538380    0.000804645
     15        1           0.000099684   -0.000054309    0.000032492
     16        1           0.000127316   -0.000091474   -0.000030451
 -------------------------------------------------------------------
 Cartesian Forces:  Max     0.001346821 RMS     0.000461649
 IRC-IRC-IRC-IRC-IRC-IRC-IRC-IRC-IRC-IRC-IRC-IRC-IRC-IRC-IRC-IRC-IRC-IRC
 Error in corrector energy =          -0.0000158482
 Magnitude of corrector gradient =     0.0015283793
 Magnitude of analytic gradient =      0.0031983989
 Magnitude of difference =             0.0029139125
 Angle between gradients (degrees)=   65.3681
 Pt 25 Step number  18 out of a maximum of  20
 Modified Bulirsch-Stoer Extrapolation Cycles:
    EPS =    0.000010000000000
 Maximum DWI energy   std dev =  0.000008235 at pt    95
 Maximum DWI gradient std dev =  1.170857377 at pt   137
 CORRECTOR INTEGRATION CONVERGENCE:
   Recorrection delta-x convergence threshold:    0.010000
   Delta-x Convergence NOT Met
 IRC-IRC-IRC-IRC-IRC-IRC-IRC-IRC-IRC-IRC-IRC-IRC-IRC-IRC-IRC-IRC-IRC-IRC
                          Input orientation:                          
 ---------------------------------------------------------------------
 Center     Atomic      Atomic             Coordinates (Angstroms)
 Number     Number       Type             X           Y           Z
 ---------------------------------------------------------------------
      1          6           0       -0.817785    1.524508   -0.613953
      2          1           0       -0.868280    2.605711   -0.530997
      3          6           0       -1.431543    0.735604    0.275321
      4          1           0       -1.982137    1.205241    1.088887
      5          6           0       -0.819144   -1.525518   -0.615678
      6          1           0       -0.870415   -2.607004   -0.534064
      7          6           0       -1.431694   -0.736014    0.274324
      8          1           0       -1.983463   -1.206923    1.086279
      9          6           0        2.148964    0.666149    0.354998
     10          6           0        2.150519   -0.664724    0.356362
     11          1           0        1.772195    1.235824    1.198288
     12          1           0        1.767941   -1.234611    1.200005
     13          1           0       -0.247133   -1.122886   -1.449934
     14          1           0       -0.254310    1.125400   -1.451075
     15          1           0        2.523562    1.237402   -0.490754
     16          1           0        2.524341   -1.238205   -0.488461
 ---------------------------------------------------------------------
                    Distance matrix (angstroms):
                    1          2          3          4          5
     1  C    0.000000
     2  H    1.085556   0.000000
     3  C    1.337862   2.112987   0.000000
     4  H    2.087418   2.413715   1.088854   0.000000
     5  C    3.050026   4.132388   2.506308   3.422739   0.000000
     6  H    4.132619   5.212716   3.484680   4.289884   1.085773
     7  C    2.505170   3.483260   1.471618   2.175999   1.338147
     8  H    3.422033   4.288985   2.176162   2.412166   2.086576
     9  C    3.236857   3.694678   3.582066   4.230273   3.815138
    10  C    3.813800   4.538314   3.846901   4.594802   3.241099
    11  H    3.174201   3.440803   3.371353   3.756050   4.198871
    12  H    4.193943   4.969316   3.869559   4.475300   3.174010
    13  H    2.834290   3.890077   2.798806   3.856945   1.088711
    14  H    1.085157   1.847923   2.125620   3.072974   2.836246
    15  H    3.355921   3.657660   4.059744   4.774686   4.338550
    16  H    4.337988   5.127121   4.486457   5.363469   3.358217
                    6          7          8          9         10
     6  H    0.000000
     7  C    2.114032   0.000000
     8  H    2.413424   1.088795   0.000000
     9  C    4.540992   3.846255   4.595664   0.000000
    10  C    3.700182   3.583861   4.232796   1.330875   0.000000
    11  H    4.975113   3.873856   4.481576   1.085183   2.112830
    12  H    3.442583   3.367960   3.753230   2.114735   1.087599
    13  H    1.852000   2.127421   3.074782   3.492807   3.036667
    14  H    3.892471   2.797874   3.855887   3.041141   3.500654
    15  H    5.128393   4.485952   5.364236   1.087175   2.115384
    16  H    3.660609   4.060080   4.775048   2.116340   1.087359
                   11         12         13         14         15
    11  H    0.000000
    12  H    2.470439   0.000000
    13  H    4.080964   3.330943   0.000000
    14  H    3.337370   4.085019   2.248298   0.000000
    15  H    1.848626   3.088767   3.764005   2.941315   0.000000
    16  H    3.087339   1.850154   2.935778   3.772818   2.475608
                   16
    16  H    0.000000
 Symmetry turned off by external request.
 Stoichiometry    C6H10
 Framework group  C1[X(C6H10)]
 Deg. of freedom    42
 Full point group                 C1      NOp   1
 Rotational constants (GHZ):      3.9774486      2.2029633      1.6203611
 Standard basis: 6-31+G(d) (6D, 7F)
   134 basis functions,   232 primitive gaussians,   134 cartesian basis functions
    23 alpha electrons       23 beta electrons
       nuclear repulsion energy       206.8627778541 Hartrees.
 NAtoms=   16 NActive=   16 NUniq=   16 SFac= 1.00D+00 NAtFMM=   60 NAOKFM=F Big=F
 Integral buffers will be    131072 words long.
 Raffenetti 2 integral format.
 Two-electron integral symmetry is turned off.
 One-electron integrals computed using PRISM.
 NBasis=   134 RedAO= T EigKep=  3.24D-05  NBF=   134
 NBsUse=   134 1.00D-06 EigRej= -1.00D+00 NBFU=   134
 Initial guess from the checkpoint file:  "/work/1959001.1.msa_smp.q/Gau-4880.chk"
 B after Tr=    -0.000017   -0.000019   -0.000002
         Rot=    1.000000   -0.000143    0.000009    0.000130 Ang=  -0.02 deg.
 ExpMin= 4.38D-02 ExpMax= 3.05D+03 ExpMxC= 4.57D+02 IAcc=2 IRadAn=         4 AccDes= 0.00D+00
 Harris functional with IExCor= 1009 and IRadAn=       4 diagonalized for initial guess.
 HarFok:  IExCor= 1009 AccDes= 0.00D+00 IRadAn=         4 IDoV= 1 UseB2=F ITyADJ=14
 ICtDFT=  3500011 ScaDFX=  1.000000  1.000000  1.000000  1.000000
 FoFCou: FMM=F IPFlag=           0 FMFlag=      100000 FMFlg1=           0
         NFxFlg=           0 DoJE=T BraDBF=F KetDBF=T FulRan=T
         wScrn=  0.000000 ICntrl=     500 IOpCl=  0 I1Cent=   200000004 NGrid=           0
         NMat0=    1 NMatS0=      1 NMatT0=    0 NMatD0=    1 NMtDS0=    0 NMtDT0=    0
 Symmetry not used in FoFCou.
 Requested convergence on RMS density matrix=1.00D-08 within 128 cycles.
 Requested convergence on MAX density matrix=1.00D-06.
 Requested convergence on             energy=1.00D-06.
 No special actions if energy rises.
 SCF Done:  E(RM062X) =  -234.448354554     A.U. after    9 cycles
            NFock=  9  Conv=0.77D-08     -V/T= 2.0094
 DoSCS=F DFT=T ScalE2(SS,OS)=  1.000000  1.000000
 Range of M.O.s used for correlation:     1   134
 NBasis=   134 NAE=    23 NBE=    23 NFC=     0 NFV=     0
 NROrb=    134 NOA=    23 NOB=    23 NVA=   111 NVB=   111

 **** Warning!!: The largest alpha MO coefficient is  0.60938112D+02

 Symmetrizing basis deriv contribution to polar:
 IMax=3 JMax=2 DiffMx= 0.00D+00
 Calling FoFJK, ICntrl=      2147 FMM=F ISym2X=0 I1Cent= 0 IOpClX= 0 NMat=1 NMatS=1 NMatT=0.
 -------------------------------------------------------------------
 Center     Atomic                   Forces (Hartrees/Bohr)
 Number     Number              X              Y              Z
 -------------------------------------------------------------------
      1        6          -0.001128170    0.000685683    0.000800398
      2        1          -0.000005317    0.000099315    0.000050522
      3        6          -0.000370501   -0.000246046    0.000018950
      4        1           0.000036553    0.000028666   -0.000042262
      5        6           0.000531138    0.000681197   -0.000528863
      6        1          -0.000025666    0.000114653   -0.000045950
      7        6          -0.000680635   -0.000275380   -0.000222184
      8        1          -0.000123413    0.000029422    0.000000351
      9        6           0.001311282   -0.000455303   -0.000344221
     10        6           0.000102247   -0.000586539    0.000655744
     11        1          -0.000428689    0.000353195    0.000374432
     12        1           0.000468990    0.000528566   -0.000718347
     13        1          -0.000713477   -0.000554587    0.000819740
     14        1           0.000765729   -0.000562541   -0.000792621
     15        1           0.000144780    0.000107703   -0.000046790
     16        1           0.000115149    0.000051996    0.000021100
 -------------------------------------------------------------------
 Cartesian Forces:  Max     0.001311282 RMS     0.000491787
 IRC-IRC-IRC-IRC-IRC-IRC-IRC-IRC-IRC-IRC-IRC-IRC-IRC-IRC-IRC-IRC-IRC-IRC
 Error in corrector energy =          -0.0000186379
 Magnitude of corrector gradient =     0.0015413961
 Magnitude of analytic gradient =      0.0034072028
 Magnitude of difference =             0.0031763614
 Angle between gradients (degrees)=   68.2298
 Pt 25 Step number  19 out of a maximum of  20
 Modified Bulirsch-Stoer Extrapolation Cycles:
    EPS =    0.000010000000000
 Maximum DWI energy   std dev =  0.000009119 at pt    -1
 Maximum DWI gradient std dev =  1.181977699 at pt   137
 CORRECTOR INTEGRATION CONVERGENCE:
   Recorrection delta-x convergence threshold:    0.010000
   Delta-x Convergence NOT Met
 IRC-IRC-IRC-IRC-IRC-IRC-IRC-IRC-IRC-IRC-IRC-IRC-IRC-IRC-IRC-IRC-IRC-IRC
                          Input orientation:                          
 ---------------------------------------------------------------------
 Center     Atomic      Atomic             Coordinates (Angstroms)
 Number     Number       Type             X           Y           Z
 ---------------------------------------------------------------------
      1          6           0       -0.819870    1.525176   -0.615330
      2          1           0       -0.871407    2.606613   -0.533303
      3          6           0       -1.431879    0.735158    0.274556
      4          1           0       -1.983614    1.205658    1.086773
      5          6           0       -0.817030   -1.524859   -0.614235
      6          1           0       -0.867354   -2.606097   -0.531722
      7          6           0       -1.431326   -0.736452    0.275063
      8          1           0       -1.982112   -1.206505    1.088263
      9          6           0        2.150048    0.665867    0.356150
     10          6           0        2.149326   -0.665019    0.355190
     11          1           0        1.767191    1.235733    1.199543
     12          1           0        1.773470   -1.234553    1.198625
     13          1           0       -0.253443   -1.125347   -1.451053
     14          1           0       -0.247736    1.122901   -1.449916
     15          1           0        2.523689    1.239317   -0.488810
     16          1           0        2.524606   -1.236194   -0.490330
 ---------------------------------------------------------------------
                    Distance matrix (angstroms):
                    1          2          3          4          5
     1  C    0.000000
     2  H    1.085768   0.000000
     3  C    1.338126   2.114027   0.000000
     4  H    2.086515   2.413364   1.088797   0.000000
     5  C    3.050036   4.132623   2.505128   3.421998   0.000000
     6  H    4.132391   5.212712   3.483211   4.288944   1.085549
     7  C    2.506320   3.484688   1.471610   2.176164   1.337832
     8  H    3.422735   4.289873   2.175989   2.412164   2.087406
     9  C    3.240771   3.699569   3.583526   4.232297   3.813723
    10  C    3.815100   4.540685   3.846040   4.595197   3.237032
    11  H    3.173393   3.441550   3.367525   3.752620   4.193907
    12  H    4.199041   4.974887   3.874006   4.481386   3.175127
    13  H    2.836290   3.892514   2.797841   3.855857   1.085129
    14  H    1.088896   1.852173   2.127520   3.074884   2.834271
    15  H    3.358141   3.660349   4.059978   4.774869   4.337834
    16  H    4.338929   5.128539   4.486095   5.364134   3.356369
                    6          7          8          9         10
     6  H    0.000000
     7  C    2.112945   0.000000
     8  H    2.413690   1.088857   0.000000
     9  C    4.538588   3.846987   4.595271   0.000000
    10  C    3.695234   3.582260   4.230767   1.330887   0.000000
    11  H    4.969685   3.869714   4.475956   1.087492   2.114667
    12  H    3.442265   3.372208   3.757308   2.112622   1.084905
    13  H    1.847884   2.125587   3.072948   3.500171   3.041005
    14  H    3.890043   2.798862   3.857012   3.036465   3.492989
    15  H    5.127204   4.486569   5.363902   1.087386   2.116360
    16  H    3.658379   4.060167   4.775285   2.115339   1.087189
                   11         12         13         14         15
    11  H    0.000000
    12  H    2.470294   0.000000
    13  H    4.084521   3.337828   0.000000
    14  H    3.330509   4.081376   2.248255   0.000000
    15  H    1.850091   3.087118   3.772268   2.935656   0.000000
    16  H    3.088652   1.848453   2.941569   3.764574   2.475512
                   16
    16  H    0.000000
 Symmetry turned off by external request.
 Stoichiometry    C6H10
 Framework group  C1[X(C6H10)]
 Deg. of freedom    42
 Full point group                 C1      NOp   1
 Rotational constants (GHZ):      3.9775164      2.2030122      1.6203789
 Standard basis: 6-31+G(d) (6D, 7F)
   134 basis functions,   232 primitive gaussians,   134 cartesian basis functions
    23 alpha electrons       23 beta electrons
       nuclear repulsion energy       206.8645520565 Hartrees.
 NAtoms=   16 NActive=   16 NUniq=   16 SFac= 1.00D+00 NAtFMM=   60 NAOKFM=F Big=F
 Integral buffers will be    131072 words long.
 Raffenetti 2 integral format.
 Two-electron integral symmetry is turned off.
 One-electron integrals computed using PRISM.
 NBasis=   134 RedAO= T EigKep=  3.24D-05  NBF=   134
 NBsUse=   134 1.00D-06 EigRej= -1.00D+00 NBFU=   134
 Initial guess from the checkpoint file:  "/work/1959001.1.msa_smp.q/Gau-4880.chk"
 B after Tr=     0.000029    0.000021    0.000001
         Rot=    1.000000    0.000150    0.000001   -0.000136 Ang=   0.02 deg.
 ExpMin= 4.38D-02 ExpMax= 3.05D+03 ExpMxC= 4.57D+02 IAcc=2 IRadAn=         4 AccDes= 0.00D+00
 Harris functional with IExCor= 1009 and IRadAn=       4 diagonalized for initial guess.
 HarFok:  IExCor= 1009 AccDes= 0.00D+00 IRadAn=         4 IDoV= 1 UseB2=F ITyADJ=14
 ICtDFT=  3500011 ScaDFX=  1.000000  1.000000  1.000000  1.000000
 FoFCou: FMM=F IPFlag=           0 FMFlag=      100000 FMFlg1=           0
         NFxFlg=           0 DoJE=T BraDBF=F KetDBF=T FulRan=T
         wScrn=  0.000000 ICntrl=     500 IOpCl=  0 I1Cent=   200000004 NGrid=           0
         NMat0=    1 NMatS0=      1 NMatT0=    0 NMatD0=    1 NMtDS0=    0 NMtDT0=    0
 Symmetry not used in FoFCou.
 Requested convergence on RMS density matrix=1.00D-08 within 128 cycles.
 Requested convergence on MAX density matrix=1.00D-06.
 Requested convergence on             energy=1.00D-06.
 No special actions if energy rises.
 SCF Done:  E(RM062X) =  -234.448353395     A.U. after    9 cycles
            NFock=  9  Conv=0.82D-08     -V/T= 2.0094
 DoSCS=F DFT=T ScalE2(SS,OS)=  1.000000  1.000000
 Range of M.O.s used for correlation:     1   134
 NBasis=   134 NAE=    23 NBE=    23 NFC=     0 NFV=     0
 NROrb=    134 NOA=    23 NOB=    23 NVA=   111 NVB=   111

 **** Warning!!: The largest alpha MO coefficient is  0.60936149D+02

 Symmetrizing basis deriv contribution to polar:
 IMax=3 JMax=2 DiffMx= 0.00D+00
 Calling FoFJK, ICntrl=      2147 FMM=F ISym2X=0 I1Cent= 0 IOpClX= 0 NMat=1 NMatS=1 NMatT=0.
 -------------------------------------------------------------------
 Center     Atomic                   Forces (Hartrees/Bohr)
 Number     Number              X              Y              Z
 -------------------------------------------------------------------
      1        6           0.000621923   -0.000730437   -0.000629533
      2        1          -0.000026057   -0.000112638   -0.000049805
      3        6          -0.000702891    0.000277977   -0.000207826
      4        1          -0.000126646   -0.000033172    0.000002630
      5        6          -0.001130880   -0.000715908    0.000782341
      6        1          -0.000002552   -0.000104857    0.000052480
      7        6          -0.000384140    0.000265089    0.000043127
      8        1           0.000041479   -0.000027923   -0.000041958
      9        6           0.000139460    0.000550400    0.000589232
     10        6           0.001430724    0.000567288   -0.000483561
     11        1           0.000440041   -0.000490518   -0.000662258
     12        1          -0.000517583   -0.000456065    0.000511488
     13        1           0.000781177    0.000572868   -0.000801119
     14        1          -0.000786110    0.000607796    0.000907433
     15        1           0.000094885   -0.000061278    0.000030378
     16        1           0.000127168   -0.000108624   -0.000043051
 -------------------------------------------------------------------
 Cartesian Forces:  Max     0.001430724 RMS     0.000518861
 IRC-IRC-IRC-IRC-IRC-IRC-IRC-IRC-IRC-IRC-IRC-IRC-IRC-IRC-IRC-IRC-IRC-IRC
 Error in corrector energy =          -0.0000211963
 Magnitude of corrector gradient =     0.0015839741
 Magnitude of analytic gradient =      0.0035947748
 Magnitude of difference =             0.0033588067
 Angle between gradients (degrees)=   68.6294
 Pt 25 Step number  20 out of a maximum of  20
 Modified Bulirsch-Stoer Extrapolation Cycles:
    EPS =    0.000010000000000
 Maximum DWI energy   std dev =  0.000009678 at pt    -1
 Maximum DWI gradient std dev =  1.176746938 at pt   137
 CORRECTOR INTEGRATION CONVERGENCE:
   Recorrection delta-x convergence threshold:    0.010000
   Delta-x Convergence NOT Met
 Maximum number of corrector steps exceded.
 Error termination via Lnk1e in /u/local/apps/gaussian/09d01/g09/l123.exe at Thu Mar 23 22:08:09 2017.
 Job cpu time:       0 days  3 hours  4 minutes 24.6 seconds.
 File lengths (MBytes):  RWF=     35 Int=      0 D2E=      0 Chk=      4 Scr=      1
