

 Parallel Execution: Process Information
 ==============================================================================
 Rank   Node Name                              NodeID   MyNodeRank  NodeMaster
    0   node130                                   0          0          0
    1   node130                                   0          1         -1
    2   node130                                   0          2         -1
    3   node130                                   0          3         -1
    4   node130                                   0          4         -1
    5   node130                                   0          5         -1
    6   node130                                   0          6         -1
    7   node130                                   0          7         -1
 ==============================================================================



ATOMS
1 C      -0.000000054864      -0.000000001636       0.591500000000
2 C      -0.000000054864      -0.000000001636      -0.591500000000
3 H      -0.000000054860      -0.912492794214       1.195345877425
4 H      -0.000000054869       0.912492813693       1.195345849686
5 H      -0.000000054860      -0.912492794214      -1.195345877425
6 H      -0.000000054869       0.912492813693      -1.195345849686
END

GUIBONDS
1 1 3 1.0
2 1 4 1.0
3 1 2 2.0
4 2 5 1.0
5 2 6 1.0
END

NOPRINT LOGFILE

Fragments
H t21.H
C t21.C
End
end input

 *******************************************************************************
 *                                                                             *
 *  -------------------------------------                                      *
 *   Amsterdam Density Functional  (ADF)         2016                          *
 *  -------------------------------------                                      *
 *                                               r52212 2016-04-25             *
 *                                                                             *
 *                                                                             *
 *                              =================                              *
 *                              |               |                              *
 *                              |     A D F     |                              *
 *                              |               |                              *
 *                              =================                              *
 *                                                                             *
 *                                                                             *
 *   Online information and documentation:  http://www.scm.com                 *
 *   E-mail:  support@scm.com   info@scm.com                                   *
 *                                                                             *
 *   Scientific publications using ADF results must be properly referenced     *
 *   See the User Manuals (or the web site) for recommended citations          *
 *   The terms and conditions of the End User License Agreement apply to       *
 *   the use of ADF, http://www.scm.com/Sales/LicAgreement.html                *
 *                                                                             *
 **********************  x86_64_linux_intel / intelmpi  ************************
 
 Licensed to: VU/FEW (+ SARA) / ALGEMEEN / Amsterdam / THE NETHERLANDS
 SCM User ID: u7668
  
 ADF 2016  RunTime: Jan26-2017 17:07:47  Nodes: 1  Procs: 8

 Temporary files are created in /tmp/kid_0.YQYpeu


Communication costs MPI_COMM_WORLD:      3.089 usec per message,   0.0383 usec per 8-byte item
Communication costs for intra-node:      3.073 usec per message,   0.0382 usec per 8-byte item

 *** (NO TITLE) ***



 ===========================
 A T T A C H E D   F I L E S
 ===========================
  



 ===============================
 M O D E L   P A R A M E T E R S
 ===============================
  
 DENSITY FUNCTIONAL POTENTIAL (scf)
    LDA:                               VWN                                      
    Gradient Corrections:              ---                                      

 SPIN  (restricted / unrestr.)
    Molecule:                          Restricted                               
    Fragments:                         Restricted                               

 OTHER ASPECTS
    Relativistic Corrections:          ---                                      

    Nuclear Charge Density Model:      Point Charge Nuclei                                                                                                                                                                                     
    Core Treatment:                    Frozen Orbital(s)                        

    Hyperfine or Zeeman Interaction:   ---                                      


 Fragment File(s)
 ----------------
 C:
         file : t21.C
         jobid: ADF 2016  RunTime: Jan26-2017 17:07:46  Nodes: 1  Procs: 1
         title: Carbon (DZ, 1s frozen)
 H:
         file : t21.H
         jobid: ADF 2016  RunTime: Jan26-2017 17:07:45  Nodes: 1  Procs: 1
         title: Hydrogen (DZ)



                                        ************************************
                                        *  R U N   T Y P E : SINGLE POINT  *
                                        ************************************
  



 ===============
 G E O M E T R Y  ***  Planar Molecule  ***
 ===============
  

 ATOMS
 =====                            X Y Z                    CHARGE
                                (Angstrom)             Nucl     +Core       At.Mass
                       --------------------------    ----------------       -------
    1  C               0.0000    0.0000    0.5915      6.00      4.00       12.0000
    2  C               0.0000    0.0000   -0.5915      6.00      4.00       12.0000
    3  H               0.0000   -0.9125    1.1953      1.00      1.00        1.0078
    4  H               0.0000    0.9125    1.1953      1.00      1.00        1.0078
    5  H               0.0000   -0.9125   -1.1953      1.00      1.00        1.0078
    6  H               0.0000    0.9125   -1.1953      1.00      1.00        1.0078


 FRAGMENTS
 =========                                     Atoms in this Fragment     Cart. coord.s (Angstrom)
                                               -------------------------------------------------------
    1  C                                                 1  C            0.0000    0.0000    0.5915
    2  C                                                 2  C            0.0000    0.0000   -0.5915
    3  H                                                 3  H            0.0000   -0.9125    1.1953
    4  H                                                 4  H            0.0000    0.9125    1.1953
    5  H                                                 5  H            0.0000   -0.9125   -1.1953
    6  H                                                 6  H            0.0000    0.9125   -1.1953


 Interatomic Distance Matrix (Angstrom)
 --------------------------------------

   1)     0.000
   2)     1.183   0.000
   3)     1.094   2.006   0.000
   4)     1.094   2.006   1.825   0.000
   5)     2.006   1.094   2.391   3.008   0.000
   6)     2.006   1.094   3.008   2.391   1.825   0.000

 Min. Distance =    1.0942
 Max. Distance =    3.0077



 =====================================
 S Y M M E T R Y ,   E L E C T R O N S
 =====================================
  
 Symmetry: D(2H)

 Irreducible Representations, including subspecies
 -------------------------------------------------
 A.g
 B1.g
 B2.g
 B3.g
 A.u
 B1.u
 B2.u
 B3.u


 Configuration of Valence Electrons
 ==================================
 ( determined in the SCF procedure )

 Total:   12

 Net Charge: 0 (Nuclei minus Electrons)

 Aufbau principle for MO occupations will be applied through SCF cycle no.     150
 Thereafter, the program will assign electrons to MOs that are spatially
 similar to the occupied MOs in a "reference" cycle ("KeepOrbitals").
 The reference cycle is always the PREVIOUS cycle: it will evolve with
 the SCF procedure.
1
 ***************************************************************************************************



                                      ****************************************
                                      *  B U I L D : (Fragments, Functions)  *
                                      ****************************************
  



 =======
 S F O s  ***  (Symmetrized Fragment Orbitals)  ***
 =======
  
 SFOs are linear combinations of (valence) Fragment Orbitals (FOs), such that the SFOs transform as the
 irreducible representations of the (molecular) symmetry group. Each SFO is therefore characterized by
 an irrep of the molecule and by a few (or only one) generating FOs.
 The SFOs constitute a symmetry-adapted basis for the Fock matrix. The MO eigenvector coefficients in
 this basis provide a direct interpretation of the MOs in terms of Frontier Orbital Theory.

 The SFOs are combined with auxiliary Core Functions (CFs) to ensure orthogonalization on the (frozen)
 Core Orbitals (COs). The Core-orthogonalized SFOs (CSFOs) constitute the true Fock basis.

 The FOs, and hence also the (C)SFOs are combinations of the elementary basis functions (BAS). The basis
 functions that participate in the description of the SFOs depend on the irrep. The indices of the
 involved functions are printed below for each irrep.
 (The complete list of primitive basis functions is printed in another section)

 Total nr. of (C)SFOs (summation over all irreps) :    24

 NOTE: a (C)SFO that is defined as a combination of more than one FO is usually NOT normalized.



                                       === A.g ===
 Nr. of SFOs :    6
 Cartesian basis functions that participate in this irrep (total number =    18) :
      1    10     2    11     3    12     6    15     9    18
     19    21    23    25    20    22    24    26

    SFO  (index         Fragment          Generating    Expansion in Fragment Orbitals
  indx  incl.CFs)   Occup   Orb.Energy   FragmentType  Coeff.   Orbital     on Fragment
 --------------------------------------------------------------------------------------
     1       3      2.000      -0.508 au  C             0.71      1 S               1
                        (     -13.814 eV)               0.71      1 S               2
     2       4       --         0.470 au  C             0.71      2 S               1
                        (      12.782 eV)               0.71      2 S               2
     3       5      0.667      -0.206 au  C             0.71      1 P:z             1
                        (      -5.600 eV)              -0.71      1 P:z             2
     4       6       --         0.432 au  C             0.71      2 P:z             1
                        (      11.757 eV)              -0.71      2 P:z             2
     5       7      1.000      -0.234 au  H             0.50      1 S               3
                        (      -6.379 eV)               0.50      1 S               4
                                                        0.50      1 S               5
                                                        0.50      1 S               6
     6       8       --         0.403 au  H             0.50      2 S               3
                        (      10.964 eV)               0.50      2 S               4
                                                        0.50      2 S               5
                                                        0.50      2 S               6



                                       === B2.g ===
 Nr. of SFOs :    2
 Cartesian basis functions that participate in this irrep (total number =     4) :
      4    13     7    16

    SFO  (index         Fragment          Generating    Expansion in Fragment Orbitals
  indx  incl.CFs)   Occup   Orb.Energy   FragmentType  Coeff.   Orbital     on Fragment
 --------------------------------------------------------------------------------------
     1       1      0.667      -0.206 au  C             0.71      1 P:x             1
                        (      -5.600 eV)              -0.71      1 P:x             2
     2       2       --         0.432 au  C             0.71      2 P:x             1
                        (      11.757 eV)              -0.71      2 P:x             2



                                       === B3.g ===
 Nr. of SFOs :    4
 Cartesian basis functions that participate in this irrep (total number =    12) :
      5    14     8    17    19    21    23    25    20    22
     24    26

    SFO  (index         Fragment          Generating    Expansion in Fragment Orbitals
  indx  incl.CFs)   Occup   Orb.Energy   FragmentType  Coeff.   Orbital     on Fragment
 --------------------------------------------------------------------------------------
     1       1      0.667      -0.206 au  C             0.71      1 P:y             1
                        (      -5.600 eV)              -0.71      1 P:y             2
     2       2       --         0.432 au  C             0.71      2 P:y             1
                        (      11.757 eV)              -0.71      2 P:y             2
     3       3      1.000      -0.234 au  H             0.50      1 S               3
                        (      -6.379 eV)              -0.50      1 S               4
                                                       -0.50      1 S               5
                                                        0.50      1 S               6
     4       4       --         0.403 au  H             0.50      2 S               3
                        (      10.964 eV)              -0.50      2 S               4
                                                       -0.50      2 S               5
                                                        0.50      2 S               6



                                       === B1.u ===
 Nr. of SFOs :    6
 Cartesian basis functions that participate in this irrep (total number =    18) :
      1    10     2    11     3    12     6    15     9    18
     19    21    23    25    20    22    24    26

    SFO  (index         Fragment          Generating    Expansion in Fragment Orbitals
  indx  incl.CFs)   Occup   Orb.Energy   FragmentType  Coeff.   Orbital     on Fragment
 --------------------------------------------------------------------------------------
     1       3      2.000      -0.508 au  C             0.71      1 S               1
                        (     -13.814 eV)              -0.71      1 S               2
     2       4       --         0.470 au  C             0.71      2 S               1
                        (      12.782 eV)              -0.71      2 S               2
     3       5      0.667      -0.206 au  C             0.71      1 P:z             1
                        (      -5.600 eV)               0.71      1 P:z             2
     4       6       --         0.432 au  C             0.71      2 P:z             1
                        (      11.757 eV)               0.71      2 P:z             2
     5       7      1.000      -0.234 au  H             0.50      1 S               3
                        (      -6.379 eV)               0.50      1 S               4
                                                       -0.50      1 S               5
                                                       -0.50      1 S               6
     6       8       --         0.403 au  H             0.50      2 S               3
                        (      10.964 eV)               0.50      2 S               4
                                                       -0.50      2 S               5
                                                       -0.50      2 S               6



                                       === B2.u ===
 Nr. of SFOs :    4
 Cartesian basis functions that participate in this irrep (total number =    12) :
      5    14     8    17    19    21    23    25    20    22
     24    26

    SFO  (index         Fragment          Generating    Expansion in Fragment Orbitals
  indx  incl.CFs)   Occup   Orb.Energy   FragmentType  Coeff.   Orbital     on Fragment
 --------------------------------------------------------------------------------------
     1       1      0.667      -0.206 au  C             0.71      1 P:y             1
                        (      -5.600 eV)               0.71      1 P:y             2
     2       2       --         0.432 au  C             0.71      2 P:y             1
                        (      11.757 eV)               0.71      2 P:y             2
     3       3      1.000      -0.234 au  H             0.50      1 S               3
                        (      -6.379 eV)              -0.50      1 S               4
                                                        0.50      1 S               5
                                                       -0.50      1 S               6
     4       4       --         0.403 au  H             0.50      2 S               3
                        (      10.964 eV)              -0.50      2 S               4
                                                        0.50      2 S               5
                                                       -0.50      2 S               6



                                       === B3.u ===
 Nr. of SFOs :    2
 Cartesian basis functions that participate in this irrep (total number =     4) :
      4    13     7    16

    SFO  (index         Fragment          Generating    Expansion in Fragment Orbitals
  indx  incl.CFs)   Occup   Orb.Energy   FragmentType  Coeff.   Orbital     on Fragment
 --------------------------------------------------------------------------------------
     1       1      0.667      -0.206 au  C             0.71      1 P:x             1
                        (      -5.600 eV)               0.71      1 P:x             2
     2       2       --         0.432 au  C             0.71      2 P:x             1
                        (      11.757 eV)               0.71      2 P:x             2



 ================================
 (Slater-type)  F U N C T I O N S  ***  (Basis and Fit)  ***
 ================================
  

 Atom Type    1  (C)
 ==============

 Valence Basis Sets:   5
 -----------------------
   1 S    5.400000
   2 S    1.240000
   2 S    1.980000
   2 P    0.960000
   2 P    2.200000

 Frozen Core Shells
 ------------------
    S:  1

 Atom Type    2  (H)
 ==============

 Valence Basis Sets:   2
 -----------------------
   1 S    0.760000
   1 S    1.280000


 BAS: List of all Elementary Cartesian Basis Functions
 =====================================================

 The numbering in the list below (to the right of the function characteristics) is referred
 to in print-outs of MO eigenvectors and Mulliken populations in the BAS representation
 (as contrasted to the SFO representation).

 Notes:
 1. The functions are characterized by a polynomial prefactor (powers of x,y,z and r) and
    an exponential decay factor alpha.
 2. Since the basis sets are specific for an atom TYPE, the individual functions occur on
    all atoms of that type.
 3. The word 'Core' in the left margin signals that it is a Core Function (CF) : not a
    degree of freedom in the valence set, but only used to ensure orthogonalization of
    the other valence basis functions on the frozen Core Orbitals.


 (power of) X  Y  Z  R     Alpha  on Atom
            ==========     =====     ==========

 C                                    1    2
                                  ---------------------------------------------------------------------------
    Core    0  0  0  0     5.400      1   10
            0  0  0  1     1.240      2   11
            0  0  0  1     1.980      3   12
            1  0  0  0     0.960      4   13
            0  1  0  0     0.960      5   14
            0  0  1  0     0.960      6   15
            1  0  0  0     2.200      7   16
            0  1  0  0     2.200      8   17
            0  0  1  0     2.200      9   18

 H                                    3    4    5    6
                                  ---------------------------------------------------------------------------
            0  0  0  0     0.760     19   21   23   25
            0  0  0  0     1.280     20   22   24   26

 Total number of charge fitting functions (nprimf)       364
 Total number of Cartesian basis functions (naos)         26
 Total number of Cartesian core functions  (ncos)          2

1
 ***************************************************************************************************



                                              ***********************
                                              *  T E C H N I C A L  *
                                              ***********************
  



 =============================================================
 P A R A L L E L I Z A T I O N  and  V E C T O R I Z A T I O N
 =============================================================
  
 Nr of parallel processes:                                8
 Maximum vector length in NumInt loops:                 128

 IO buffersize (Mb):                                     64.000000



 =====================
 S C F   U P D A T E S
 =====================
  
 Max. nr. of cycles:                               300
 Convergence criterion:                              0.0000010000
   secondary criterion:                              0.0010000000

 Mix parameter (when DIIS does not apply):           0.2000000000
 Mixed ADIIS+DIIS will be used
    Max number of expansion vectors:                10
    Pure ADIIS when Max([F,P]) is above              0.1000000000
    Pure DIIS when Max([F,P]) is below               0.0010000000
 Automatic ElectronSmearing (in case of problematic SCF convergence) disabled



 =================
 P R E C I S I O N  ***  (General: NumInt, NeglectFunctionTails, ...)  ***
 =================
  

 NumInt:           Target precision:                 4.0000000000
 -------           Initial precision:                4.0000000000
                   Min. precision (optimization):    4.0000000000

 Neglect Functions:          Basis functions:        0.1000000000E-05
 ------------------          Fit functions:          0.1000000000E-05



 ===========================
 L I N E A R   S C A L I N G
 ===========================
  

 Cut-off radii density fit:                        0.1000000000E-07
 Overlap cut-off criterion AO matrix elements:     0.1000000000E-05
 Cut-offs for Coulomb potential and fitted density:0.1000000000E-07
 Cut-off criterion for Coulomb multipole terms:    0.1000000000E-07
 Progressive Convergence parameter:                 0.000000000    
1
 ***************************************************************************************************



                                            ***************************
                                            *  C O M P U T A T I O N  *
                                            ***************************
  

 Number of elements of the density matrix on this node (used, total):        45       351



 ===========================================
 Numerical Integration : Fuzzy Cells (Becke)
 ===========================================
  
 Becke grid quality: NORMAL         
  
 Lebedev angular grid order:             min:  11 max:  23
 Nr. of radial points:                   min:  46 max:  49

 Total nr. of points:       5157
 Nr. of blocks:               41
 Block length:               126
 Nr. of dummy points:          9


 Test of Precision of the Numerical Integration Grid
 ===================================================

 Integral of the Total Core Density:                   4.00000162178601
 Relative Error:                                       4.054E-07



 ========================
 Density Fitting (zlmFit)
 ========================
  
 ZlmFit Fit Quality: NORMAL         
  
 Max L-expansion:                        min:   4 max:   5
 Nr. of radial interpolation points:     min:  36 max:  42



 =====
 S C F  ***  ScaSCF  ***
 =====
  
 Initial density matrix is calculated as sum of fragments

 CYCLE    1
 SCF Error: norm([F,P])=      1.114917080279, max([F,P])=      0.456229475322
 orbitals (Q,E):
 ---------------
 A.g :1...6          ( 2.00    -1.0027)  ( 2.00    -0.6374)  ( 0.00    -0.0491)  ( 0.00     0.2565)
                     ( 0.00     0.4040)  ( 0.00     0.7912)
 B2.g :1...2         ( 0.00    -0.1924)  ( 0.00     0.4804)
 B3.g :1...4         ( 2.00    -0.4794)  ( 0.00     0.0947)  ( 0.00     0.7053)  ( 0.00     1.3876)
 B1.u :1...6         ( 2.00    -0.7113)  ( 0.00    -0.0073)  ( 0.00     0.2276)  ( 0.00     0.5253)
                     ( 0.00     0.7972)  ( 0.00     1.6756)
 B2.u :1...4         ( 2.00    -0.6591)  ( 0.00    -0.0538)  ( 0.00     0.3213)  ( 0.00     0.6792)
 B3.u :1...2         ( 2.00    -0.4922)  ( 0.00     0.2695)

 CYCLE    2
  SDIIS (wt  0.000):  0.4260  0.5740
 A-DIIS (wt  1.000):  0.0000  1.0000
  DIIS coefficients:  0.0000  1.0000
 SCF Error: norm([F,P])=      0.896720988599, max([F,P])=      0.376385315402
 orbitals (Q,E):
 ---------------
 A.g :1...3          ( 2.00    -0.5047)  ( 2.00    -0.2008)  ( 0.00     0.1038)
 B2.g :1...1         ( 0.00     0.1463)
 B3.g :1...2         ( 2.00    -0.1888)  ( 0.00     0.3113)
 B1.u :1...2         ( 2.00    -0.3770)  ( 0.00     0.1513)
 B2.u :1...2         ( 2.00    -0.2970)  ( 0.00     0.1571)
 B3.u :1...2         ( 2.00    -0.0999)  ( 0.00     0.6134)

 CYCLE    3
  SDIIS (wt  0.000):  0.0125  0.5781  0.4094
 A-DIIS (wt  1.000):  0.0000  0.6511  0.3489
  DIIS coefficients:  0.0000  0.6511  0.3489
 SCF Error: norm([F,P])=      1.243145892032, max([F,P])=      0.530777298249
 orbitals (Q,E):
 ---------------
 A.g :1...3          ( 2.00    -0.7018)  ( 2.00    -0.3828)  ( 0.00     0.0449)
 B2.g :1...1         ( 0.00     0.0129)
 B3.g :1...2         ( 2.00    -0.2814)  ( 0.00     0.2274)
 B1.u :1...2         ( 2.00    -0.4989)  ( 0.00     0.0925)
 B2.u :1...2         ( 2.00    -0.4281)  ( 0.00     0.0729)
 B3.u :1...2         ( 2.00    -0.2621)  ( 0.00     0.4440)

 CYCLE    4
  SDIIS (wt  0.226):  0.1289 -0.0447  0.9158
 A-DIIS (wt  0.774):  0.0000  0.0000  1.0000
  DIIS coefficients:  0.0292 -0.0101  0.9809
 SCF Error: norm([F,P])=      0.185928109374, max([F,P])=      0.077582261640
 orbitals (Q,E):
 ---------------
 A.g :1...3          ( 2.00    -0.7751)  ( 2.00    -0.4415)  ( 0.00     0.0251)
 B2.g :1...1         ( 0.00    -0.0366)
 B3.g :1...2         ( 2.00    -0.3164)  ( 0.00     0.1971)
 B1.u :1...2         ( 2.00    -0.5427)  ( 0.00     0.0718)
 B2.u :1...2         ( 2.00    -0.4768)  ( 0.00     0.0462)
 B3.u :1...2         ( 2.00    -0.3201)  ( 0.00     0.3920)

 CYCLE    5
  SDIIS (wt  0.226):  0.0248 -0.0099  0.6011  0.3840
 A-DIIS (wt  0.774):  0.0000  0.0000  0.5392  0.4608
  DIIS coefficients:  0.0056 -0.0023  0.5532  0.4434
 SCF Error: norm([F,P])=      0.201824901854, max([F,P])=      0.085057865889
 orbitals (Q,E):
 ---------------
 A.g :1...3          ( 2.00    -0.7355)  ( 2.00    -0.4112)  ( 0.00     0.0343)
 B2.g :1...1         ( 0.00    -0.0099)
 B3.g :1...2         ( 2.00    -0.2982)  ( 0.00     0.2113)
 B1.u :1...2         ( 2.00    -0.5199)  ( 0.00     0.0810)
 B2.u :1...2         ( 2.00    -0.4508)  ( 0.00     0.0589)
 B3.u :1...2         ( 2.00    -0.2886)  ( 0.00     0.4181)

 CYCLE    6
  SDIIS (wt  0.984): -0.0035  0.0016  0.0262  0.0210  0.9548
 A-DIIS (wt  0.016):  0.0000  0.0000  0.0000  0.0000  1.0000
  DIIS coefficients: -0.0035  0.0016  0.0257  0.0206  0.9556
 SCF Error: norm([F,P])=      0.006030093734, max([F,P])=      0.002614101572
 orbitals (Q,E):
 ---------------
 A.g :1...3          ( 2.00    -0.7344)  ( 2.00    -0.4102)  ( 0.00     0.0345)
 B2.g :1...1         ( 0.00    -0.0092)
 B3.g :1...2         ( 2.00    -0.2976)  ( 0.00     0.2116)
 B1.u :1...2         ( 2.00    -0.5192)  ( 0.00     0.0812)
 B2.u :1...2         ( 2.00    -0.4501)  ( 0.00     0.0591)
 B3.u :1...2         ( 2.00    -0.2878)  ( 0.00     0.4188)

 CYCLE    7
  SDIIS (wt  1.000): -0.0004  0.0003  0.0010  0.0011  0.1210  0.8771
  DIIS coefficients: -0.0004  0.0003  0.0010  0.0011  0.1210  0.8771
 SCF Error: norm([F,P])=      0.000080010627, max([F,P])=      0.000033730349
 orbitals (Q,E):
 ---------------
 A.g :1...3          ( 2.00    -0.7344)  ( 2.00    -0.4102)  ( 0.00     0.0345)
 B2.g :1...1         ( 0.00    -0.0092)
 B3.g :1...2         ( 2.00    -0.2977)  ( 0.00     0.2116)
 B1.u :1...2         ( 2.00    -0.5192)  ( 0.00     0.0812)
 B2.u :1...2         ( 2.00    -0.4502)  ( 0.00     0.0591)
 B3.u :1...2         ( 2.00    -0.2878)  ( 0.00     0.4188)

 CYCLE    8
  SDIIS (wt  1.000): -0.0000  0.0000 -0.0002 -0.0002  0.0042  0.0753  0.9209
  DIIS coefficients: -0.0000  0.0000 -0.0002 -0.0002  0.0042  0.0753  0.9209
 SCF Error: norm([F,P])=      0.000018263278, max([F,P])=      0.000007761119
 orbitals (Q,E):
 ---------------
 A.g :1...3          ( 2.00    -0.7344)  ( 2.00    -0.4102)  ( 0.00     0.0345)
 B2.g :1...1         ( 0.00    -0.0092)
 B3.g :1...2         ( 2.00    -0.2977)  ( 0.00     0.2116)
 B1.u :1...2         ( 2.00    -0.5192)  ( 0.00     0.0812)
 B2.u :1...2         ( 2.00    -0.4502)  ( 0.00     0.0591)
 B3.u :1...2         ( 2.00    -0.2878)  ( 0.00     0.4188)

 CYCLE    9
  SDIIS (wt  1.000):  0.0000 -0.0000 -0.0000  0.0001  0.0027  0.0493  0.9479
  DIIS coefficients:  0.0000 -0.0000 -0.0000  0.0001  0.0027  0.0493  0.9479
 SCF Error: norm([F,P])=      0.000000937593, max([F,P])=      0.000000381767
 orbitals (Q,E):
 ---------------
 A.g :1...3          ( 2.00    -0.7344)  ( 2.00    -0.4102)  ( 0.00     0.0345)
 B2.g :1...1         ( 0.00    -0.0092)
 B3.g :1...2         ( 2.00    -0.2977)  ( 0.00     0.2116)
 B1.u :1...2         ( 2.00    -0.5192)  ( 0.00     0.0812)
 B2.u :1...2         ( 2.00    -0.4502)  ( 0.00     0.0591)
 B3.u :1...2         ( 2.00    -0.2878)  ( 0.00     0.4188)

 SCF CONVERGED

 CYCLE   10
1
 ***************************************************************************************************



                                                *******************
                                                *  R E S U L T S  *
                                                *******************
  
 *** Setting up for NEW gradients in Focky
 *** Using FIT density in Focky

 Orbital Energies, per Irrep and Spin:
 ======================================
                        Occup              E (au)              E (eV)       Diff (eV) with prev. cycle
                        -----      --------------------        ------       --------------------------
 A.g
               1        2.000     -0.73435602094476E+00       -19.983               1.09E-07
               2        2.000     -0.41020769151475E+00       -11.162               8.92E-08
               3        0.000      0.34492430840834E-01         0.939
               4        0.000      0.39871828622260E+00        10.850
               5        0.000      0.52777485425919E+00        14.361
               6        0.000      0.96072029372415E+00        26.143
 B2.g
               1        0.000     -0.92086672388648E-02        -0.251
               2        0.000      0.65928274310698E+00        17.940
 B3.g
               1        2.000     -0.29765696412396E+00        -8.100               6.38E-08
               2        0.000      0.21158608120752E+00         5.758
               3        0.000      0.88737594454521E+00        24.147
               4        0.000      0.15513759911112E+01        42.215
 B1.u
               1        2.000     -0.51921969624046E+00       -14.129               7.02E-08
               2        0.000      0.81213884690501E-01         2.210
               3        0.000      0.34903944797823E+00         9.498
               4        0.000      0.71448889897000E+00        19.442
               5        0.000      0.10207959489593E+01        27.777
               6        0.000      0.18932932913276E+01        51.519
 B2.u
               1        2.000     -0.45015395390359E+00       -12.249               7.90E-08
               2        0.000      0.59128395235112E-01         1.609
               3        0.000      0.43679066788633E+00        11.886
               4        0.000      0.85915694738363E+00        23.379
 B3.u
               1        2.000     -0.28780299016163E+00        -7.832               9.03E-08
               2        0.000      0.41883829430512E+00        11.397
  
 HOMO :        1 B3.u             -0.28780299016163E+00
 LUMO :        1 B2.g             -0.92086672388648E-02
  


 Orbital Energies, all Irreps
 ========================================

 Irrep        no.  (spin)   Occup              E (au)                E (eV)
 ---------------------------------------------------------------------------
 A.g           1             2.00       -0.73435602094476E+00       -19.9828
 B1.u          1             2.00       -0.51921969624046E+00       -14.1287
 B2.u          1             2.00       -0.45015395390359E+00       -12.2493
 A.g           2             2.00       -0.41020769151475E+00       -11.1623
 B3.g          1             2.00       -0.29765696412396E+00        -8.0997
 B3.u          1             2.00       -0.28780299016163E+00        -7.8315
 B2.g          1             0.00       -0.92086672388648E-02        -0.2506
 A.g           3             0.00        0.34492430840834E-01         0.9386
 B2.u          2             0.00        0.59128395235112E-01         1.6090
 B1.u          2             0.00        0.81213884690501E-01         2.2099
 B3.g          2             0.00        0.21158608120752E+00         5.7576
 B1.u          3             0.00        0.34903944797823E+00         9.4978
 A.g           4             0.00        0.39871828622260E+00        10.8497
 B3.u          2             0.00        0.41883829430512E+00        11.3972
 B2.u          3             0.00        0.43679066788633E+00        11.8857
 A.g           5             0.00        0.52777485425919E+00        14.3615
 B2.g          2             0.00        0.65928274310698E+00        17.9400
 B1.u          4             0.00        0.71448889897000E+00        19.4422
 B2.u          4             0.00        0.85915694738363E+00        23.3789
 B3.g          3             0.00        0.88737594454521E+00        24.1467
 A.g           6             0.00        0.96072029372415E+00        26.1425
 B1.u          5             0.00        0.10207959489593E+01        27.7773
 B3.g          4             0.00        0.15513759911112E+01        42.2151
 B1.u          6             0.00        0.18932932913276E+01        51.5191


 Orbital Energies of the Core Orbitals:
 ======================================
 (Note that the atoms are grouped by atomtype, see the labels, and may hence NOT be in input order)

 AtomType  Orbital  Atom                   E (au)                        E (eV)
 --------  -------  ----           --------------------        ----------------
 C           1S        1          -0.97745267195329E+01                -265.978
                       2          -0.97745267195329E+01                -265.978


 Fit test: (difference of exact and fit density, squared integrated, result summed over spins)
         Sum-of-Fragments:                             0.00000000000378
         Orthogonalized Fragments:                     0.00019565163333
         SCF:                                          0.00097525815805



 ==========================
 Electron Density at Nuclei
 ==========================
  
 The electron density is calculated at points on a small sphere around the center of a nucleus.
 The printed electron density is the average electron density on these points.
 The radius of the sphere is the printed approximate finite nuclear radius.

         Atom        Nuclear Radius (Angstrom)             Electron Density (a.u.)
         ----        -------------------------             -----------------------
     1)   C                 0.0000320678                              125.17159
     2)   C                 0.0000320678                              125.17159
     3)   H                 0.0000181514                                0.48192
     4)   H                 0.0000181514                                0.48192
     5)   H                 0.0000181514                                0.48192
     6)   H                 0.0000181514                                0.48192



 =======================================
 M U L L I K E N   P O P U L A T I O N S
 =======================================
  
 The survey below gives for each atom:
 a) the total charge (Z minus electrons)
 b) the net spin polarization (nr of electrons spin-A minus spin-B)
 c) for each spin the atomic electron valence density (integrated) per L-value.

 Atom              Charge    Spin density          S         P         D         F
 ----              ------    ------------       ------    ------    ------    ------
 1 C              -0.5514                       1.3846    3.1668    0.0000    0.0000
 2 C              -0.5514                       1.3846    3.1668    0.0000    0.0000
 3 H               0.2757                       0.7243    0.0000    0.0000    0.0000
 4 H               0.2757                       0.7243    0.0000    0.0000    0.0000
 5 H               0.2757                       0.7243    0.0000    0.0000    0.0000
 6 H               0.2757                       0.7243    0.0000    0.0000    0.0000

 Populations of individual BAS functions
 ----------------------------------------
 1 C            0.0004  0.6069  0.7773  0.5080  0.5909  0.2100  0.4920  0.6104  0.7554
 2 C            0.0004  0.6069  0.7773  0.5080  0.5909  0.2100  0.4920  0.6104  0.7554
 3 H           -0.1752  0.8995
 4 H           -0.1752  0.8995
 5 H           -0.1752  0.8995
 6 H           -0.1752  0.8995

 Gross Charges per Atom (Z minus electrons)
 ==========================================
            -0.5514   -0.5514    0.2757    0.2757    0.2757    0.2757
 Net Total: -0.00000000


 Atom-Atom Population Matrix (off-diagonal elements not doubled)
 ===============================================================

     1 :     3.4496
     2 :     0.4681    3.4496
     3 :     0.3868   -0.0700    0.4408
     4 :     0.3868   -0.0700   -0.0287    0.4408
     5 :    -0.0700    0.3868   -0.0169    0.0122    0.4408
     6 :    -0.0700    0.3868    0.0122   -0.0169   -0.0287    0.4408



 =================================================
 H I R S H F E L D   C H A R G E   A N A L Y S I S
 =================================================
  
 For each fragment: the (numerical) integral of rho(scf) * rho(fragment)/rho(sum-of-fragments)
 (nuclear charges are included, electrons are counted negative)

 The fragments and their ordering are defined in the early G E O M E T R Y output section.
 If you use single-atom fragments, this usually implies that all atoms of the same
 chemical type are grouped together. This may not be the order in which you listed them
 in the input file!

    1  C                        -0.1098
    2  C                        -0.1098
    3  H                         0.0549
    4  H                         0.0549
    5  H                         0.0549
    6  H                         0.0549

 Sum of these charges (accuracy NumInt/Tails) =           0.00002662



 =============================
 V O R O N O I   C H A R G E S
 =============================
  
 For each atom: the (numerical) integral of the total electronic charge density in its Voronoi cell,
 i.e. the region of space that is closer to that atom than to any other atom.
 (cf. Wigner-Seitz cells in crystals)

 Within the Voronoi cell the subintegrals over the atomic sphere and the remaining part are evaluated
 separately to give the numbers of electrons (negative charge) in these regions.
 The net total charge in the cell (including the nuclear charge) is also given.

 Values are provided for
    a) the Initial (sum-of-fragments) density
    b) the Orthogonalized-Fragments density
    c) the SCF density
    d) the Voronoi Deformation Density (VDD): the difference SCF-Initial for the complete atomic cell


  Atom                Initial                    OrthFrag                   SCF
             Sphere RestCell NetTotal   Sphere RestCell NetTotal   Sphere RestCell NetTotal      VDD
 -----       ------------------------   ------------------------   ------------------------    -----
    1 C      -2.143   -2.833    1.024   -2.289   -2.969    0.742   -2.178   -2.951    0.871   -0.153
    2 C      -2.143   -2.833    1.024   -2.289   -2.969    0.742   -2.178   -2.951    0.871   -0.153
    3 H      -0.071   -1.441   -0.512   -0.092   -1.280   -0.371   -0.105   -1.330   -0.435    0.077
    4 H      -0.071   -1.441   -0.512   -0.092   -1.280   -0.371   -0.105   -1.330   -0.435    0.077
    5 H      -0.071   -1.441   -0.512   -0.092   -1.280   -0.371   -0.105   -1.330   -0.435    0.077
    6 H      -0.071   -1.441   -0.512   -0.092   -1.280   -0.371   -0.105   -1.330   -0.435    0.077
 ---------------------------------------------------------------------------------------------------
 Total NetCharge:              -0.000                      0.000                      0.000    0.000
 (accuracy NumInt/Tails)

 Remark: the 'NetTotal' Voronoi charges often do not match the Mulliken and/or Hirshfeld charges very
 well. This is caused by the fact that chemically different atoms are not treated in accordance with
 their relative sizes. (Voronoi cells are defined by boundary planes halfway between the atoms.)
 However, the CHANGES in charge, comparing 'Initial' to 'SCF' for instance, do give a fair indication
 of the flow of charge caused by the relaxation from sum-of-fragments to self-consistency.

 Warning: the absolute accuracy of the VDD charges obtained using the Fuzzy Cells (Becke) integration
 scheme is much poorer than the one obtained with an 'equivalent' Voronoi integration grid. 



 =================================================================
 M U L T I P O L E   D E R I V E D   C H A R G E   A N A L Y S I S
 =================================================================

 This charge analysis uses the atomic multipoles (obtained from the fitted density) up to some level X,
 and reconstructs these multipoles exactly (up to level X) by distributing charges over all atoms.
 This is achieved by using Lagrange multipliers and a weight function to keep the multipoles local.

 Dummy atoms can be included (by setting INCDUM in MDC-block to 1) to obtain a fractional charge.
 This is generally useful and necessary only for small symmetrical molecules, when there are not
 enough degrees of freedom to reconstruct the multipoles.

 Since the atomic multipoles are reconstructed up to level X,
 the molecular multipoles are represented also up to level X.
 The recommended level is to reconstruct up to quadrupole : -> MDC-q charges.

 See: M. Swart, P.Th. van Duijnen, J.G. Snijders, J.Comput.Chem., (2001), p. 79-88.

 ------------------------------------------------------------- 
 Atomic electronic multipole moments from SCF equations (a.u.)
 ------------------------------------------------------------- 

   atom        charge        dip-x     dip-y     dip-z      quad-xx   quad-xy   quad-xz   quad-yy   quad-yz   quad-zz
 --------------------------------------------------------------------------------------------------------------------
    1 C      0.096091    -0.000000 -0.000000  0.000176    -1.295924  0.000000  0.000000  0.492352  0.000000  0.803572
    2 C      0.096091    -0.000000 -0.000000 -0.000176    -1.295924  0.000000  0.000000  0.492352  0.000000  0.803572
    3 H     -0.048046     0.000000  0.006954  0.001332    -0.224497 -0.000000  0.000000  0.163276 -0.083599  0.061221
    4 H     -0.048046     0.000000 -0.006954  0.001332    -0.224497 -0.000000 -0.000000  0.163276  0.083599  0.061221
    5 H     -0.048046    -0.000000  0.006954 -0.001332    -0.224497 -0.000000  0.000000  0.163276  0.083599  0.061221
    6 H     -0.048046    -0.000000 -0.006954 -0.001332    -0.224497 -0.000000 -0.000000  0.163276 -0.083599  0.061221

 --------------------------------------- 
 Multipole derived atomic charges (a.u.)
 --------------------------------------- 

 The MDC-m charges are just the Monopole terms in the multipole expansion, while for the MDC-d charges
 also the Dipoles are reconstructed. The usually preferred charges are the MDC-q charges.
 These reconstruct the Monopoles, Dipoles and Quadrupoles (both atomic AND molecular).

        Atom    Level:     MDC-m        MDC-d        MDC-q
 ---------------------------------------------------------
     1     C            0.096091     0.089139    -0.429084
     2     C            0.096091     0.089139    -0.429084
     3     H           -0.048046    -0.044570     0.214542
     4     H           -0.048046    -0.044570     0.214542
     5     H           -0.048046    -0.044570     0.214542
     6     H           -0.048046    -0.044570     0.214542

 ------------------------------------------------ 
 Average absolute deviations in atomic multipoles
 ------------------------------------------------ 

 Stated here are the average differences between the atomic multipoles
 and the reconstructed atomic multipoles (from the distributed charges).
 If these values are not zero, this means there are not enough degrees of freedom,
 to be able to reconstruct the atomic multipoles. (This usually happens only
 for small and/or highly symmetric molecules). If this is the case, one could add
 dummy atoms as extra point charges (and setting INCDUM in MDC-block to 1).

 Level:                                 MDC-d        MDC-q
 ---------------------------------------------------------
 Charge   (a.u.)                       0.0000       0.0000
 Dipole   (Debye)                      0.0000       0.0278
 Quad.    (a.u.)                       0.1938       0.0027

 --------------------------------------- 
 Represented molecular multipole moments
 --------------------------------------- 

 Given here are the Molecular multipole moments from the atomic charges, and from the Fit Density.
 Note that the atomic charges represent the latter, NOT the ones from the Exact density.

            Q (a.u.)             Dipole moment (Debye)                                          Quadrupole moment (a.u.)
                                 x         y         z              xx        xy        xz        yy        yz        zz
------------------------------------------------------------------------------------------------------------------------
MDC-m         0.0000        0.0000   -0.0000    0.0000          0.6560    0.0000    0.0000   -0.2012    0.0000   -0.4548
MDC-d        -0.0000        0.0000   -0.0000    0.0000          0.6085    0.0000    0.0000   -0.1866    0.0000   -0.4219
MDC-q         0.0000        0.0000   -0.0000    0.0000         -2.9292    0.0000    0.0000    0.8984    0.0000    2.0308
 
Fit.Dens.     0.0000       -0.0000   -0.0000    0.0000         -2.7983   -0.0000    0.0000    1.3283    0.0000    1.4701



 =============
 Dipole Moment  ***  (Debye)  ***
 =============
  
 Vector   :         0.00000000      0.00000000      0.00000000
 Magnitude:         0.00000000

 This molecular dipole moment is calculated with analytic integration



 =========================================
 Quadrupole Moment (Buckingham convention)  ***  (a.u.)  ***
 =========================================
  
      quad-xx        quad-xy        quad-xz        quad-yy        quad-yz        quad-zz
     -2.80478351     0.00000000     0.00000000     1.31633702     0.00000000     1.48844649

 This molecular quadrupole moment is calculated with analytic integration
1



 ===========================
 B O N D I N G   E N E R G Y  ***  (decomposition)  ***
 ===========================
  
*** IMPORTANT NOTE ***

The bond energy is computed as an energy difference between molecule and
fragments. In particular when the fragments are single atoms, they are usually
computed as SPHERICALLY SYMMETRIC and SPIN-RESTRICTED. Obviously, this usually
does NOT represent the true atomic groundstate.

To obtain the 'real' bond energy, (atomic) correction terms must be applied
for the true (multiplet) fragment ground state. See ref: E.J.Baerends,
V.Branchadell, M.Sodupe, Chem.Phys.Lett.265 (1997) 481

General theoretical background on the bond energy decomposition scheme used
here (Morokuma-Ziegler) can be found in the review paper:
F.M. Bickelhaupt and E.J. Baerends,
"Kohn-Sham Density Functional Theory: Predicting and Understanding Chemistry"
In: Rev. Comput. Chem.; Lipkowitz, K. B. and Boyd, D. B., Eds.;
Wiley-VCH: New York, 2000, Vol. 15, 1-86.

Symbols used in the Bickelhaupt-Baerends (BB) paper are given below to make
the direct connection to that paper, where detailed explanations can be found
on the meaning of the various terms.


                                                   hartree              eV         kcal/mol           kJ/mol
                                      --------------------     -----------       ----------      -----------

Pauli Repulsion
  Kinetic (Delta T^0):                  11.104665554018007        302.1733          6968.28         29155.30
  Delta V^Pauli Coulomb:                -5.393494644041503       -146.7645         -3384.47        -14160.62
  Delta V^Pauli LDA-XC:                 -1.344732005750236        -36.5920          -843.83         -3530.59
                                      --------------------     -----------       ----------      -----------
  Total Pauli Repulsion:                 4.366438904226268        118.8168          2739.98         11464.08
 (Total Pauli Repulsion =
  Delta E^Pauli in BB paper)

Steric Interaction
  Pauli Repulsion (Delta E^Pauli):       4.366438904226268        118.8168          2739.98         11464.08
  Electrostatic Interaction:            -0.714793202488136        -19.4505          -448.54         -1876.69
 (Electrostatic Interaction =
  Delta V_elstat in the BB paper)
                                      --------------------     -----------       ----------      -----------
  Total Steric Interaction:              3.651645701738131         99.3663          2291.44          9587.39
 (Total Steric Interaction =
  Delta E^0 in the BB paper)

Orbital Interactions
  A.g:                                  -1.164055905635477        -31.6756          -730.46         -3056.23
  B2.g:                                  0.006417831944531          0.1746             4.03            16.85
  B3.g:                                 -0.781430021494639        -21.2638          -490.35         -2051.64
  B1.u:                                 -1.646760752200120        -44.8106         -1033.36         -4323.57
  B2.u:                                 -0.786711816196841        -21.4075          -493.67         -2065.51
  B3.u:                                 -0.444766276891339        -12.1027          -279.10         -1167.73
                                      --------------------     -----------       ----------      -----------
  Total Orbital Interactions:           -4.817306940473885       -131.0856         -3022.91        -12647.84

Alternative Decomposition Orb.Int.
  Kinetic:                              -9.345140111974889       -254.2942         -5864.16        -24535.66
  Coulomb:                               4.367570959710779        118.8477          2740.69         11467.06
  XC:                                    0.160262211790225          4.3610           100.57           420.77
                                      --------------------     -----------       ----------      -----------
  Total Orbital Interactions:           -4.817306940473884       -131.0856         -3022.91        -12647.84

  Residu (E=Steric+OrbInt+Res):         -0.000096500157922         -0.0026            -0.06            -0.25

Total Bonding Energy:                   -1.165757738893675        -31.7219          -731.52         -3060.70


Summary of Bonding Energy (energy terms are taken from the energy decomposition above)
======================================================================================

  Electrostatic Energy:                 -0.714793202488136        -19.4505          -448.54         -1876.69
  Kinetic Energy:                        1.759525442043119         47.8791          1104.12          4619.63
  Coulomb (Steric+OrbInt) Energy:       -1.026020184488647        -27.9194          -643.84         -2693.82
  XC Energy:                            -1.184469793960011        -32.2311          -743.27         -3109.83
                                      --------------------     -----------       ----------      -----------
  Total Bonding Energy:                 -1.165757738893675        -31.7219          -731.52         -3060.70


Correction terms (incorporated in energies above; only for test purposes):

1. Indication of fit-quality: 1st-order fit-correction used in the energy (hartree):  -0.0001622503
2. Electrostatic (Fit correction):   0.0000000000



 =========================================
 F R A G M E N T   E N E R G Y   T E R M S  ***  (summed over all fragments)  ***
 =========================================
  

The energy terms below are (parts of) the Total Energy of the fragments from which the molecule
 is built.

Exchange and Correlation
  Exchange LDA:                         -9.476553094578287       -257.8701         -5946.63        -24880.69
  Exchange GGA:                          0.000000000000000          0.0000             0.00             0.00
  Correlation LDA:                      -0.900958848335238        -24.5163          -565.36         -2365.47
  Correlation GGA:                       0.000000000000000          0.0000             0.00             0.00
                                      --------------------     -----------       ----------      -----------
  Total XC:                            -10.377511942913525       -282.3865         -6511.99        -27246.15
1



 =======================================================
 S F O   P O P U L A T I O N S ,   M O   A N A L Y S I S
 =======================================================
  
 A Mulliken population analysis is performed on (input-)selected MOs. All populations refer to SFOs.
 BAS populations may have been printed directly after the SCF part.


                                       === A.g ===


 SFO contributions (%) per orbital
 (multiplication by the orbital occupation yields the SFO Gross Populations)

 Orb.:        1      2      3      4      5      6
 occup:     2.00   2.00   0.00   0.00   0.00   0.00
 CF+SFO     ----   ----   ----   ----   ----   ----
 ------
      3:   85.31   1.97   2.93  -4.79  20.00  -5.89
      4:   -0.62   2.27 -25.42   7.69   8.28 107.36
      5:   11.27  59.49  13.29  10.20   9.76  -3.83
      6:   -0.80   6.90  -5.60  87.32  -4.10  16.20
      7:    8.96  29.26  74.90  -0.02   5.97 -19.47
      8:   -4.13   0.07  39.69  -0.37  59.82   4.97


 Summation over all MOs, multiplied by occupation: Total SFO Gross Populations in this Irrep
 ===========================================================================================

     0.00    0.00    1.75    0.03    1.42    0.12    0.76   -0.08


                                       === B2.g ===


 SFO contributions (%) per orbital
 (multiplication by the orbital occupation yields the SFO Gross Populations)

 Orb.:        1      2
 occup:     0.00   0.00
 CF+SFO     ----   ----
 ------
      1:  109.19  -9.19
      2:   -9.19 109.19


 Summation over all MOs, multiplied by occupation: Total SFO Gross Populations in this Irrep
 ===========================================================================================

     0.00    0.00


                                       === B3.g ===


 SFO contributions (%) per orbital
 (multiplication by the orbital occupation yields the SFO Gross Populations)

 Orb.:        1      2      3      4
 occup:     2.00   0.00   0.00   0.00
 CF+SFO     ----   ----   ----   ----
 ------
      1:   44.56  43.76  11.06   0.62
      2:   -0.10 -45.86  22.94 123.03
      3:   46.37  74.01  -8.16 -12.22
      4:    9.17  28.09  74.17 -11.42


 Summation over all MOs, multiplied by occupation: Total SFO Gross Populations in this Irrep
 ===========================================================================================

     0.89   -0.00    0.93    0.18


                                       === B1.u ===


 SFO contributions (%) per orbital
 (multiplication by the orbital occupation yields the SFO Gross Populations)

 Orb.:        1      2      3      4      5
 occup:     2.00   0.00   0.00   0.00   0.00
 CF+SFO     ----   ----   ----   ----   ----
 ------
      3:   50.96  23.12  -4.14  65.02   5.77
      4:   -1.43 -25.50 -13.08 -15.11  14.87
      5:   22.94  -2.79 111.77   3.60  -3.53
      6:   -3.29  -1.37  14.31 -26.02  90.26
      7:   27.40  82.14  14.83  -3.86 -20.75
      8:    3.42  24.38 -23.76  76.29  13.38


 Summation over all MOs, multiplied by occupation: Total SFO Gross Populations in this Irrep
 ===========================================================================================

    -0.00   -0.00    1.02   -0.03    0.46   -0.07    0.55    0.07


                                       === B2.u ===


 SFO contributions (%) per orbital
 (multiplication by the orbital occupation yields the SFO Gross Populations)

 Orb.:        1      2      3      4
 occup:     2.00   0.00   0.00   0.00
 CF+SFO     ----   ----   ----   ----
 ------
      1:   77.17   8.40  20.44  -6.00
      2:   -1.49 -22.41  36.04  87.86
      3:   18.23 106.57   3.53 -28.32
      4:    6.10   7.44  40.00  46.47


 Summation over all MOs, multiplied by occupation: Total SFO Gross Populations in this Irrep
 ===========================================================================================

     1.54   -0.03    0.36    0.12


                                       === B3.u ===


 SFO contributions (%) per orbital
 (multiplication by the orbital occupation yields the SFO Gross Populations)

 Orb.:        1      2
 occup:     2.00   0.00
 CF+SFO     ----   ----
 ------
      1:  101.08  -1.08
      2:   -1.08 101.08


 Summation over all MOs, multiplied by occupation: Total SFO Gross Populations in this Irrep
 ===========================================================================================

     2.02   -0.02



 List of all MOs, ordered by energy, with the most significant SFO gross populations
 ===================================================================================

 Each percentage contribution in the table below corresponds to the indicated SFO.
 In general, a SFO may be a linear combination of several Fragment Orbitals on the same,
 or on symmetry-related Fragments. Only the first 'member' of such a combination is
 specified here. A full definition of all SFOs is given in an earlier part of the output.
 The numbering of the SFOs in this table does NOT include the Core Orbitals, and starts
 from one for each symmetry representation, as in the SFO definition list earlier.

       E(eV)  Occ       MO           %     SFO (first member)   E(eV)  Occ   Fragment
 -------------------------------------------------------------------------------------

     -19.983  2.00     1 A.g       85.31%     1 S             -13.814  2.00     1 C
                                   11.27%     1 P:z            -5.600  0.67     1 C
                                    8.96%     1 S              -6.379  1.00     3 H
                                   -4.13%     2 S              10.964  0.00     3 H
     -14.129  2.00     1 B1.u      50.96%     1 S             -13.814  2.00     1 C
                                   27.40%     1 S              -6.379  1.00     3 H
                                   22.94%     1 P:z            -5.600  0.67     1 C
                                    3.42%     2 S              10.964  0.00     3 H
                                   -3.29%     2 P:z            11.757  0.00     1 C
                                   -1.43%     2 S              12.782  0.00     1 C
     -12.249  2.00     1 B2.u      77.17%     1 P:y            -5.600  0.67     1 C
                                   18.23%     1 S              -6.379  1.00     3 H
                                    6.10%     2 S              10.964  0.00     3 H
                                   -1.49%     2 P:y            11.757  0.00     1 C
     -11.162  2.00     2 A.g       59.49%     1 P:z            -5.600  0.67     1 C
                                   29.26%     1 S              -6.379  1.00     3 H
                                    6.90%     2 P:z            11.757  0.00     1 C
                                    2.27%     2 S              12.782  0.00     1 C
                                    1.97%     1 S             -13.814  2.00     1 C
      -8.100  2.00     1 B3.g      46.37%     1 S              -6.379  1.00     3 H
                                   44.56%     1 P:y            -5.600  0.67     1 C
                                    9.17%     2 S              10.964  0.00     3 H
      -7.832  2.00     1 B3.u     101.08%     1 P:x            -5.600  0.67     1 C
                                   -1.08%     2 P:x            11.757  0.00     1 C
      -0.251  0.00     1 B2.g     109.19%     1 P:x            -5.600  0.67     1 C
                                   -9.19%     2 P:x            11.757  0.00     1 C
       0.939  0.00     3 A.g       74.90%     1 S              -6.379  1.00     3 H
                                   39.69%     2 S              10.964  0.00     3 H
                                  -25.42%     2 S              12.782  0.00     1 C
                                   13.29%     1 P:z            -5.600  0.67     1 C
                                   -5.60%     2 P:z            11.757  0.00     1 C
                                    2.93%     1 S             -13.814  2.00     1 C
       1.609  0.00     2 B2.u     106.57%     1 S              -6.379  1.00     3 H
                                  -22.41%     2 P:y            11.757  0.00     1 C
                                    8.40%     1 P:y            -5.600  0.67     1 C
                                    7.44%     2 S              10.964  0.00     3 H
       2.210  0.00     2 B1.u      82.14%     1 S              -6.379  1.00     3 H
                                  -25.50%     2 S              12.782  0.00     1 C
                                   24.38%     2 S              10.964  0.00     3 H
                                   23.12%     1 S             -13.814  2.00     1 C
                                   -2.79%     1 P:z            -5.600  0.67     1 C
                                   -1.37%     2 P:z            11.757  0.00     1 C



 =======================================================================
 Electrostatic potential at the Nuclei due to electrons and other nuclei
 =======================================================================
  
         Atom                  Potential
         ----                  ---------
     1)   C                  14.75383285
     2)   C                  14.75383285
     3)   H                   1.07716168
     4)   H                   1.07716168
     5)   H                   1.07716168
     6)   H                   1.07716168
 
 
 ========================
 No memory problems found
 ========================
 
 Maximum number of active allocate calls:         626
 
 *******************************************************************************

                             A D F   E X I T
 NORMAL TERMINATION



 =================
 Timing Statistics
 =================
  
 Total Used :                     CPU=        0.92      System=        0.13     Elapsed=        1.37

 Calls  Section                     ( Mean, Percentage )
 ---------------------------------------------------------------------------------------------------
     3  ><      ................      0.00    0.03             0.00    0.67             0.00    0.87
     1  INIT    ................      0.47   51.38             0.06   47.45             0.59   43.02
     1  GEOMET  ................      0.01    1.58             0.02   16.69             0.08    6.09
     1  FRAGM   ................      0.01    0.94             0.01    6.98             0.03    2.14
     1  INPUTA  ................      0.00    0.00             0.00    0.00             0.00    0.02
     1  ATDEN   ................      0.00    0.45             0.00    0.72             0.01    0.39
     1  MAINSY  ................      0.01    0.76             0.00    2.02             0.05    3.67
     1  SYMFIT  ................      0.00    0.11             0.00    0.01             0.00    0.08
     1  CORORT  ................      0.00    0.08             0.00    0.13             0.01    0.38
     1  SYMORB  ................      0.00    0.18             0.00    0.00             0.00    0.12
     1  CLSMAT  ................      0.00    0.51             0.00    0.07             0.01    0.64
     1  ORTHON  ................      0.00    0.50             0.00    0.07             0.01    0.99
     1  GENPT   ................      0.05    5.91             0.01    3.99             0.07    4.98
     1  PTBAS   ................      0.01    1.34             0.00    0.78             0.02    1.64
    10  FOCKY   ................      0.02   21.14             0.00    7.09             0.02   15.82
    10  FOCKTR  ................      0.00    1.00             0.00    0.62             0.00    0.69
    10  SDIIS   ................      0.00    1.34             0.00    0.85             0.01    4.26
     1  COREPS  ................      0.03    2.77             0.00    0.86             0.03    2.16
     1  TOTEN   ................      0.06    6.23             0.01    5.30             0.07    5.04
     1  POPAN   ................      0.00    0.21             0.00    0.10             0.01    0.97
     1  DEBYE   ................      0.00    0.08             0.00    0.03             0.00    0.33
     1  INPUTE  ................      0.00    0.04             0.00    0.00             0.00    0.09
     1  SYMORE  ................      0.00    0.07             0.00    0.04             0.00    0.04
     1  METS    ................      0.00    0.00             0.00    0.59             0.00    0.31
     1  CETS    ................      0.00    0.19             0.00    0.91             0.00    0.24
     1  ELNRGY  ................      0.00    0.33             0.00    0.74             0.00    0.29
     1  POPUL   ................      0.00    0.39             0.00    1.53             0.03    2.37
     1  EXIT PROCEDURE .........      0.02    2.42             0.00    1.75             0.03    2.35


 Currently Open Files (EXIT00)
 ====================

 Unit    Access Format  Status   Type       Ident (file)
 -------------------------------------------------------
   3      SEQ    FORM   TRANSP  NORMAL      LOGFILE
                                          ( /scistor/tc/xsn800/testadfprep/ethene_blyp_transit.logfile )


 Buffered I/O statistics
 =======================
 Memory available:                     67108864
 Number of records fitting in memory:     16131
 Input :   2.4% of                         3353  *4k bytes
 Output:  11.6% of                         2216  *4k bytes
 Records from serial files evicted:           0
                    others evicted:           0
 Hash table lookups:      14999 with          0 conflicts (  0.00%)
